 *******************************************************************************
 **                                                                           **
 **                              MOPAC v22.1.1                                **
 **                                                                           **
 *******************************************************************************
 **          Digital Object Identifier (DOI): 10.5281/zenodo.6511958          **
 **    Visit the DOI location for information on how to cite this program.    **
 *******************************************************************************

                              PM7 CALCULATION RESULTS

 *******************************************************************************
 *  CALCULATION DONE:                                Sat Feb  1 22:23:24 2025  *
 *  PM7        - The PM7 Hamiltonian to be used
 *  SINGLET    - SPIN STATE DEFINED AS A SINGLET
 *
 *
 *
 *                 CHARGE ON SYSTEM = 0
 *
 *
 *
 *  T=         - A TIME OF 172800.0 SECONDS REQUESTED
 *  DUMP=N     - RESTART FILE WRITTEN EVERY 7200.0 SECONDS REQUESTED
 *  AUX        - OUTPUT AUXILIARY INFORMATION
 *  LARGE      - EXPANDED OUTPUT TO BE PRINTED
 *******************************************************************************
 AUX LARGE CHARGE=0 SINGLET  PM7
 spirocarboxylic acid

   ATOM   CHEMICAL          X               Y               Z
  NUMBER   SYMBOL      (ANGSTROMS)     (ANGSTROMS)     (ANGSTROMS)
 
     1       O        -17.82230000  * -23.22040000  *   7.18170000  *
     2       C          6.93710000  *   0.83840000  *   8.58220000  *
     3       C         15.40780000  * -12.37280000  *   8.13510000  *
     4       C         13.21360000  *  11.07120000  *  18.22980000  *
     5       C         28.46310000  *  11.80500000  *  17.57720000  *
     6       C         28.08500000  * -13.45280000  *  -0.80210000  *
     7       C         34.28620000  *   0.98330000  *  26.33810000  *
     8       C         41.82970000  * -11.66200000  *   6.06020000  *
     9       C         40.22290000  *  -9.84470000  *  21.08440000  *
    10       C        -27.62360000  *  12.80630000  *   0.32450000  *
    11       C        -28.38140000  *  -2.58700000  *   1.03760000  *
    12       C        -18.15450000  *  17.18200000  * -10.97540000  *
    13       C         -3.22570000  *  13.36280000  * -13.04270000  *
    14       C        -15.22230000  *  -9.88010000  *   2.95860000  *
    15       C          6.44590000  *   7.22990000  *  -5.70050000  *
    16       C         -6.90640000  *  -2.72490000  *  13.51700000  *
    17       C         50.16020000  * -23.96060000  *   3.45920000  *
    18       O         45.49630000  * -33.10800000  *  -2.94780000  *
    19       O         62.76010000  * -24.94090000  *   8.44020000  *
    20       C        -52.21090000  *  10.84790000  *  -0.95870000  *
    21       O        -52.14810000  *   0.48900000  *   5.29170000  *
    22       O        -40.66760000  *  18.03340000  *  -2.31250000  *
    23       C        -65.01810000  *  15.61140000  *  -7.37130000  *
    24       H         -9.53410000  * -27.95870000  *   6.36140000  *
    25       H          8.59070000  * -20.42220000  *   4.72090000  *
    26       H         18.64010000  * -14.48620000  *  18.53370000  *
    27       H         10.37030000  *   8.26160000  *  28.62250000  *
    28       H          8.97820000  *  21.07180000  *  15.87180000  *
    29       H         31.77080000  *  21.69280000  *  21.46300000  *
    30       H         31.90240000  *  10.60420000  *   7.06180000  *
    31       H         28.03530000  * -23.68910000  *  -5.12070000  *
    32       H         27.68690000  *  -6.14790000  *  -9.07080000  *
    33       H         33.49440000  *   1.90280000  *  37.39160000  *
    34       H         46.82870000  *  -2.62890000  *   1.87430000  *
    35       H         44.15930000  * -17.66170000  *  27.92590000  *
    36       H        -23.88140000  *  16.75390000  *   9.97380000  *
    37       H        -32.95790000  *  -6.27710000  *  -8.40870000  *
    38       H        -35.00290000  *  -5.23010000  *   9.56300000  *
    39       H        -23.26490000  *  14.36940000  * -20.43100000  *
    40       H        -18.03520000  *  28.23890000  * -10.17160000  *
    41       H          0.53690000  *  16.65730000  * -22.98060000  *
    42       H         -9.63950000  * -10.04700000  *  -6.67980000  *
    43       H         16.02990000  *   6.95280000  * -11.17080000  *
    44       H        -11.73150000  *   6.54070000  *  17.01400000  *
    45       H         -5.82950000  *  -9.46540000  *  22.29860000  *
    46       H         66.42230000  * -17.79910000  *  13.68110000  *
    47       H        -73.77650000  *  11.67730000  *  -1.77600000  *
    48       H        -65.38390000  *  11.88350000  * -17.84040000  *
    49       H        -65.47600000  *  26.72010000  *  -7.40290000  *
 


          CARTESIAN COORDINATES 

    NO.       ATOM           X           Y           Z

     1         O        -17.8223    -23.2204      7.1817
     2         C          6.9371      0.8384      8.5822
     3         C         15.4078    -12.3728      8.1351
     4         C         13.2136     11.0712     18.2298
     5         C         28.4631     11.8050     17.5772
     6         C         28.0850    -13.4528     -0.8021
     7         C         34.2862      0.9833     26.3381
     8         C         41.8297    -11.6620      6.0602
     9         C         40.2229     -9.8447     21.0844
    10         C        -27.6236     12.8063      0.3245
    11         C        -28.3814     -2.5870      1.0376
    12         C        -18.1545     17.1820    -10.9754
    13         C         -3.2257     13.3628    -13.0427
    14         C        -15.2223     -9.8801      2.9586
    15         C          6.4459      7.2299     -5.7005
    16         C         -6.9064     -2.7249     13.5170
    17         C         50.1602    -23.9606      3.4592
    18         O         45.4963    -33.1080     -2.9478
    19         O         62.7601    -24.9409      8.4402
    20         C        -52.2109     10.8479     -0.9587
    21         O        -52.1481      0.4890      5.2917
    22         O        -40.6676     18.0334     -2.3125
    23         C        -65.0181     15.6114     -7.3713
    24         H         -9.5341    -27.9587      6.3614
    25         H          8.5907    -20.4222      4.7209
    26         H         18.6401    -14.4862     18.5337
    27         H         10.3703      8.2616     28.6225
    28         H          8.9782     21.0718     15.8718
    29         H         31.7708     21.6928     21.4630
    30         H         31.9024     10.6042      7.0618
    31         H         28.0353    -23.6891     -5.1207
    32         H         27.6869     -6.1479     -9.0708
    33         H         33.4944      1.9028     37.3916
    34         H         46.8287     -2.6289      1.8743
    35         H         44.1593    -17.6617     27.9259
    36         H        -23.8814     16.7539      9.9738
    37         H        -32.9579     -6.2771     -8.4087
    38         H        -35.0029     -5.2301      9.5630
    39         H        -23.2649     14.3694    -20.4310
    40         H        -18.0352     28.2389    -10.1716
    41         H          0.5369     16.6573    -22.9806
    42         H         -9.6395    -10.0470     -6.6798
    43         H         16.0299      6.9528    -11.1708
    44         H        -11.7315      6.5407     17.0140
    45         H         -5.8295     -9.4654     22.2986
    46         H         66.4223    -17.7991     13.6811
    47         H        -73.7765     11.6773     -1.7760
    48         H        -65.3839     11.8835    -17.8404
    49         H        -65.4760     26.7201     -7.4029

 General Reference for PM7:
 "Optimization of Parameters for Semiempirical Methods VI: More Modifications to the 
 NDDO Approximations and Re-optimization of Parameters", J. J. P. Stewart, J. Mol. Mod., 1:32, 19 (2013)
 https://link.springer.com/article/10.1007/s00894-012-1667-x

           Empirical Formula: C18 H26 O5  =    49 atoms



      MOLECULAR POINT GROUP   :   C1  


 SINGLET STATE CALCULATION


      RHF CALCULATION, NO. OF DOUBLY OCCUPIED LEVELS = 64


          Geometry optimization using L-BFGS


 ALL CONVERGERS ARE NOW FORCED ON
 SHIFT=10, PULAY ON, CAMP-KING ON
 AND ITERATION COUNTER RESET


 CYCLE:     1 TIME:   1.344 TIME LEFT:  2.00D  GRAD.:     2.153 HEAT:  7738.822
 CYCLE:     2 TIME:   0.008 TIME LEFT:  2.00D  GRAD.:     2.153 HEAT:  7738.822
 CYCLE:     3 TIME:   0.008 TIME LEFT:  2.00D  GRAD.:     2.200 HEAT:  7737.789
 CYCLE:     4 TIME:   0.008 TIME LEFT:  2.00D  GRAD.:     2.250 HEAT:  7736.709
 CYCLE:     5 TIME:   0.016 TIME LEFT:  2.00D  GRAD.:     2.304 HEAT:  7735.578
 CYCLE:     6 TIME:   0.008 TIME LEFT:  2.00D  GRAD.:     2.362 HEAT:  7734.392
 CYCLE:     7 TIME:   0.008 TIME LEFT:  2.00D  GRAD.:     2.424 HEAT:  7733.144
 CYCLE:     8 TIME:   0.008 TIME LEFT:  2.00D  GRAD.:     2.490 HEAT:  7731.829
 CYCLE:     9 TIME:   0.008 TIME LEFT:  2.00D  GRAD.:     2.562 HEAT:  7730.439
 CYCLE:    10 TIME:   0.008 TIME LEFT:  2.00D  GRAD.:     2.639 HEAT:  7728.967
 CYCLE:    11 TIME:   0.008 TIME LEFT:  2.00D  GRAD.:     2.723 HEAT:  7727.403
 CYCLE:    12 TIME:   0.008 TIME LEFT:  2.00D  GRAD.:     2.815 HEAT:  7725.736
 CYCLE:    13 TIME:   0.008 TIME LEFT:  2.00D  GRAD.:     2.915 HEAT:  7723.952
 CYCLE:    14 TIME:   0.016 TIME LEFT:  2.00D  GRAD.:     3.028 HEAT:  7722.030
 CYCLE:    15 TIME:   0.008 TIME LEFT:  2.00D  GRAD.:     3.149 HEAT:  7719.966
 CYCLE:    16 TIME:   0.008 TIME LEFT:  2.00D  GRAD.:     3.287 HEAT:  7717.719
 CYCLE:    17 TIME:   0.008 TIME LEFT:  2.00D  GRAD.:     3.438 HEAT:  7715.284
 CYCLE:    18 TIME:   0.016 TIME LEFT:  2.00D  GRAD.:     3.612 HEAT:  7712.604
 CYCLE:    19 TIME:   0.008 TIME LEFT:  2.00D  GRAD.:     3.806 HEAT:  7709.664
 CYCLE:    20 TIME:   0.008 TIME LEFT:  2.00D  GRAD.:     4.032 HEAT:  7706.385
 CYCLE:    21 TIME:   0.008 TIME LEFT:  2.00D  GRAD.:     4.286 HEAT:  7702.778
 CYCLE:    22 TIME:   0.008 TIME LEFT:  2.00D  GRAD.:     4.581 HEAT:  7698.758
 CYCLE:    23 TIME:   0.008 TIME LEFT:  2.00D  GRAD.:     4.294 HEAT:  7702.742
 CYCLE:    24 TIME:   0.016 TIME LEFT:  2.00D  GRAD.:     4.587 HEAT:  7698.723
 CYCLE:    25 TIME:   0.008 TIME LEFT:  2.00D  GRAD.:     4.298 HEAT:  7702.720
 CYCLE:    26 TIME:   0.008 TIME LEFT:  2.00D  GRAD.:     4.590 HEAT:  7698.699
 CYCLE:    27 TIME:   0.008 TIME LEFT:  2.00D  GRAD.:     4.301 HEAT:  7702.703
 CYCLE:    28 TIME:   0.008 TIME LEFT:  2.00D  GRAD.:     4.594 HEAT:  7698.680
 CYCLE:    29 TIME:   0.008 TIME LEFT:  2.00D  GRAD.:     4.303 HEAT:  7702.690
 CYCLE:    30 TIME:   0.016 TIME LEFT:  2.00D  GRAD.:     4.596 HEAT:  7698.665
 CYCLE:    31 TIME:   0.008 TIME LEFT:  2.00D  GRAD.:     4.305 HEAT:  7702.680
 CYCLE:    32 TIME:   0.008 TIME LEFT:  2.00D  GRAD.:     4.598 HEAT:  7698.654
 CYCLE:    33 TIME:   0.008 TIME LEFT:  2.00D  GRAD.:     4.307 HEAT:  7702.672
 CYCLE:    34 TIME:   0.008 TIME LEFT:  2.00D  GRAD.:     4.599 HEAT:  7698.644
 CYCLE:    35 TIME:   0.008 TIME LEFT:  2.00D  GRAD.:     4.308 HEAT:  7702.666
 CYCLE:    36 TIME:   0.008 TIME LEFT:  2.00D  GRAD.:     4.601 HEAT:  7698.637
 CYCLE:    37 TIME:   0.008 TIME LEFT:  2.00D  GRAD.:     4.309 HEAT:  7702.660
 CYCLE:    38 TIME:   0.008 TIME LEFT:  2.00D  GRAD.:     4.602 HEAT:  7698.631
 CYCLE:    39 TIME:   0.008 TIME LEFT:  2.00D  GRAD.:     4.310 HEAT:  7702.656
 CYCLE:    40 TIME:   0.008 TIME LEFT:  2.00D  GRAD.:     4.603 HEAT:  7698.626
 CYCLE:    41 TIME:   0.008 TIME LEFT:  2.00D  GRAD.:     4.311 HEAT:  7702.653
 CYCLE:    42 TIME:   0.008 TIME LEFT:  2.00D  GRAD.:     4.604 HEAT:  7698.621
 CYCLE:    43 TIME:   0.008 TIME LEFT:  2.00D  GRAD.:     4.312 HEAT:  7702.650
 CYCLE:    44 TIME:   0.008 TIME LEFT:  2.00D  GRAD.:     4.604 HEAT:  7698.618
 CYCLE:    45 TIME:   0.008 TIME LEFT:  2.00D  GRAD.:     4.313 HEAT:  7702.648
 CYCLE:    46 TIME:   0.008 TIME LEFT:  2.00D  GRAD.:     4.605 HEAT:  7698.615
 CYCLE:    47 TIME:   0.008 TIME LEFT:  2.00D  GRAD.:     4.313 HEAT:  7702.646
 CYCLE:    48 TIME:   0.008 TIME LEFT:  2.00D  GRAD.:     4.606 HEAT:  7698.612
 CYCLE:    49 TIME:   0.008 TIME LEFT:  2.00D  GRAD.:     4.314 HEAT:  7702.644
 CYCLE:    50 TIME:   0.008 TIME LEFT:  2.00D  GRAD.:     4.606 HEAT:  7698.610
 CYCLE:    51 TIME:   0.008 TIME LEFT:  2.00D  GRAD.:     4.314 HEAT:  7702.643
 CYCLE:    52 TIME:   0.008 TIME LEFT:  2.00D  GRAD.:     4.607 HEAT:  7698.608
 CYCLE:    53 TIME:   0.008 TIME LEFT:  2.00D  GRAD.:     4.314 HEAT:  7702.641
 CYCLE:    54 TIME:   0.008 TIME LEFT:  2.00D  GRAD.:     4.607 HEAT:  7698.606
 CYCLE:    55 TIME:   0.008 TIME LEFT:  2.00D  GRAD.:     4.315 HEAT:  7702.640
 CYCLE:    56 TIME:   0.008 TIME LEFT:  2.00D  GRAD.:     4.607 HEAT:  7698.605
 CYCLE:    57 TIME:   0.008 TIME LEFT:  2.00D  GRAD.:     4.315 HEAT:  7702.639
 CYCLE:    58 TIME:   0.008 TIME LEFT:  2.00D  GRAD.:     4.608 HEAT:  7698.604
 CYCLE:    59 TIME:   0.008 TIME LEFT:  2.00D  GRAD.:     4.315 HEAT:  7702.639
 CYCLE:    60 TIME:   0.008 TIME LEFT:  2.00D  GRAD.:     4.608 HEAT:  7698.603
 CYCLE:    61 TIME:   0.008 TIME LEFT:  2.00D  GRAD.:     4.315 HEAT:  7702.638
 CYCLE:    62 TIME:   0.016 TIME LEFT:  2.00D  GRAD.:     4.608 HEAT:  7698.602
 CYCLE:    63 TIME:   0.008 TIME LEFT:  2.00D  GRAD.:     4.316 HEAT:  7702.637
 CYCLE:    64 TIME:   0.008 TIME LEFT:  2.00D  GRAD.:     4.608 HEAT:  7698.601
 CYCLE:    65 TIME:   0.008 TIME LEFT:  2.00D  GRAD.:     4.316 HEAT:  7702.637
 CYCLE:    66 TIME:   0.008 TIME LEFT:  2.00D  GRAD.:     4.609 HEAT:  7698.600
 CYCLE:    67 TIME:   0.008 TIME LEFT:  2.00D  GRAD.:     4.316 HEAT:  7702.636
 CYCLE:    68 TIME:   0.008 TIME LEFT:  2.00D  GRAD.:     4.609 HEAT:  7698.599
 CYCLE:    69 TIME:   0.008 TIME LEFT:  2.00D  GRAD.:     4.316 HEAT:  7702.636
 CYCLE:    70 TIME:   0.008 TIME LEFT:  2.00D  GRAD.:     4.609 HEAT:  7698.599
 CYCLE:    71 TIME:   0.008 TIME LEFT:  2.00D  GRAD.:     4.316 HEAT:  7702.636
 CYCLE:    72 TIME:   0.008 TIME LEFT:  2.00D  GRAD.:     4.609 HEAT:  7698.598
 CYCLE:    73 TIME:   0.008 TIME LEFT:  2.00D  GRAD.:     4.317 HEAT:  7702.635
 CYCLE:    74 TIME:   0.008 TIME LEFT:  2.00D  GRAD.:     4.609 HEAT:  7698.597
 CYCLE:    75 TIME:   0.008 TIME LEFT:  2.00D  GRAD.:     4.317 HEAT:  7702.635
 CYCLE:    76 TIME:   0.008 TIME LEFT:  2.00D  GRAD.:     4.610 HEAT:  7698.597
 CYCLE:    77 TIME:   0.008 TIME LEFT:  2.00D  GRAD.:     4.317 HEAT:  7702.635
 CYCLE:    78 TIME:   0.008 TIME LEFT:  2.00D  GRAD.:     4.610 HEAT:  7698.596
 CYCLE:    79 TIME:   0.008 TIME LEFT:  2.00D  GRAD.:     4.317 HEAT:  7702.634
 CYCLE:    80 TIME:   0.008 TIME LEFT:  2.00D  GRAD.:     4.610 HEAT:  7698.596
 CYCLE:    81 TIME:   0.008 TIME LEFT:  2.00D  GRAD.:     4.317 HEAT:  7702.634
 CYCLE:    82 TIME:   0.008 TIME LEFT:  2.00D  GRAD.:     4.610 HEAT:  7698.596
 CYCLE:    83 TIME:   0.008 TIME LEFT:  2.00D  GRAD.:     4.317 HEAT:  7702.634
 CYCLE:    84 TIME:   0.008 TIME LEFT:  2.00D  GRAD.:     4.610 HEAT:  7698.595
 CYCLE:    85 TIME:   0.008 TIME LEFT:  2.00D  GRAD.:     4.317 HEAT:  7702.634
 CYCLE:    86 TIME:   0.008 TIME LEFT:  2.00D  GRAD.:     4.610 HEAT:  7698.595
 CYCLE:    87 TIME:   0.008 TIME LEFT:  2.00D  GRAD.:     4.317 HEAT:  7702.633
 CYCLE:    88 TIME:   0.008 TIME LEFT:  2.00D  GRAD.:     4.610 HEAT:  7698.595
 CYCLE:    89 TIME:   0.008 TIME LEFT:  2.00D  GRAD.:     4.317 HEAT:  7702.633
 CYCLE:    90 TIME:   0.008 TIME LEFT:  2.00D  GRAD.:     4.610 HEAT:  7698.594
 CYCLE:    91 TIME:   0.008 TIME LEFT:  2.00D  GRAD.:     4.318 HEAT:  7702.633
 CYCLE:    92 TIME:   0.008 TIME LEFT:  2.00D  GRAD.:     4.610 HEAT:  7698.594
 CYCLE:    93 TIME:   0.008 TIME LEFT:  2.00D  GRAD.:     4.318 HEAT:  7702.633
 CYCLE:    94 TIME:   0.016 TIME LEFT:  2.00D  GRAD.:     4.611 HEAT:  7698.594
 CYCLE:    95 TIME:   0.008 TIME LEFT:  2.00D  GRAD.:     4.318 HEAT:  7702.633
 CYCLE:    96 TIME:   0.008 TIME LEFT:  2.00D  GRAD.:     4.611 HEAT:  7698.593
 CYCLE:    97 TIME:   0.008 TIME LEFT:  2.00D  GRAD.:     4.318 HEAT:  7702.633
 CYCLE:    98 TIME:   0.008 TIME LEFT:  2.00D  GRAD.:     4.611 HEAT:  7698.593
 CYCLE:    99 TIME:   0.008 TIME LEFT:  2.00D  GRAD.:     4.318 HEAT:  7702.633
 CYCLE:   100 TIME:   0.008 TIME LEFT:  2.00D  GRAD.:     4.611 HEAT:  7698.593
 CYCLE:   101 TIME:   0.008 TIME LEFT:  2.00D  GRAD.:     4.318 HEAT:  7702.632
 CYCLE:   102 TIME:   0.008 TIME LEFT:  2.00D  GRAD.:     4.611 HEAT:  7698.593
 CYCLE:   103 TIME:   0.008 TIME LEFT:  2.00D  GRAD.:     4.318 HEAT:  7702.632
 CYCLE:   104 TIME:   0.008 TIME LEFT:  2.00D  GRAD.:     4.611 HEAT:  7698.593
 CYCLE:   105 TIME:   0.008 TIME LEFT:  2.00D  GRAD.:     4.318 HEAT:  7702.632
 CYCLE:   106 TIME:   0.008 TIME LEFT:  2.00D  GRAD.:     4.611 HEAT:  7698.592
 CYCLE:   107 TIME:   0.008 TIME LEFT:  2.00D  GRAD.:     4.318 HEAT:  7702.632
 CYCLE:   108 TIME:   0.008 TIME LEFT:  2.00D  GRAD.:     4.611 HEAT:  7698.592
 CYCLE:   109 TIME:   0.008 TIME LEFT:  2.00D  GRAD.:     4.318 HEAT:  7702.632
 CYCLE:   110 TIME:   0.008 TIME LEFT:  2.00D  GRAD.:     4.611 HEAT:  7698.592
 CYCLE:   111 TIME:   0.008 TIME LEFT:  2.00D  GRAD.:     4.318 HEAT:  7702.632
 CYCLE:   112 TIME:   0.016 TIME LEFT:  2.00D  GRAD.:     4.611 HEAT:  7698.592
 CYCLE:   113 TIME:   0.008 TIME LEFT:  2.00D  GRAD.:     4.318 HEAT:  7702.632
 CYCLE:   114 TIME:   0.008 TIME LEFT:  2.00D  GRAD.:     4.611 HEAT:  7698.592
 CYCLE:   115 TIME:   0.008 TIME LEFT:  2.00D  GRAD.:     4.318 HEAT:  7702.632
 CYCLE:   116 TIME:   0.008 TIME LEFT:  2.00D  GRAD.:     4.611 HEAT:  7698.592
 CYCLE:   117 TIME:   0.008 TIME LEFT:  2.00D  GRAD.:     4.318 HEAT:  7702.632
 CYCLE:   118 TIME:   0.008 TIME LEFT:  2.00D  GRAD.:     4.611 HEAT:  7698.592
 CYCLE:   119 TIME:   0.008 TIME LEFT:  2.00D  GRAD.:     4.318 HEAT:  7702.632
 CYCLE:   120 TIME:   0.008 TIME LEFT:  2.00D  GRAD.:     4.611 HEAT:  7698.591
 CYCLE:   121 TIME:   0.008 TIME LEFT:  2.00D  GRAD.:     4.318 HEAT:  7702.632
 CYCLE:   122 TIME:   0.008 TIME LEFT:  2.00D  GRAD.:     4.611 HEAT:  7698.591
 CYCLE:   123 TIME:   0.008 TIME LEFT:  2.00D  GRAD.:     4.318 HEAT:  7702.632
 CYCLE:   124 TIME:   0.008 TIME LEFT:  2.00D  GRAD.:     4.611 HEAT:  7698.591
 CYCLE:   125 TIME:   0.008 TIME LEFT:  2.00D  GRAD.:     4.318 HEAT:  7702.632
 CYCLE:   126 TIME:   0.008 TIME LEFT:  2.00D  GRAD.:     4.611 HEAT:  7698.591
 CYCLE:   127 TIME:   0.008 TIME LEFT:  2.00D  GRAD.:     4.318 HEAT:  7702.632
 CYCLE:   128 TIME:   0.008 TIME LEFT:  2.00D  GRAD.:     4.611 HEAT:  7698.591
 CYCLE:   129 TIME:   0.008 TIME LEFT:  2.00D  GRAD.:     4.318 HEAT:  7702.631
 CYCLE:   130 TIME:   0.008 TIME LEFT:  2.00D  GRAD.:     4.611 HEAT:  7698.591
 CYCLE:   131 TIME:   0.008 TIME LEFT:  2.00D  GRAD.:     4.319 HEAT:  7702.631
 CYCLE:   132 TIME:   0.008 TIME LEFT:  2.00D  GRAD.:     4.611 HEAT:  7698.591
 CYCLE:   133 TIME:   0.008 TIME LEFT:  2.00D  GRAD.:     4.319 HEAT:  7702.631
 CYCLE:   134 TIME:   0.008 TIME LEFT:  2.00D  GRAD.:     4.611 HEAT:  7698.591
 CYCLE:   135 TIME:   0.008 TIME LEFT:  2.00D  GRAD.:     4.319 HEAT:  7702.631
 CYCLE:   136 TIME:   0.008 TIME LEFT:  2.00D  GRAD.:     4.611 HEAT:  7698.591
 CYCLE:   137 TIME:   0.008 TIME LEFT:  2.00D  GRAD.:     4.319 HEAT:  7702.631
 CYCLE:   138 TIME:   0.008 TIME LEFT:  2.00D  GRAD.:     4.611 HEAT:  7698.591
 CYCLE:   139 TIME:   0.016 TIME LEFT:  2.00D  GRAD.:     4.319 HEAT:  7702.631
 CYCLE:   140 TIME:   0.008 TIME LEFT:  2.00D  GRAD.:     4.612 HEAT:  7698.591
 CYCLE:   141 TIME:   0.008 TIME LEFT:  2.00D  GRAD.:     4.319 HEAT:  7702.631
 CYCLE:   142 TIME:   0.008 TIME LEFT:  2.00D  GRAD.:     4.612 HEAT:  7698.591
 CYCLE:   143 TIME:   0.008 TIME LEFT:  2.00D  GRAD.:     4.319 HEAT:  7702.631
 CYCLE:   144 TIME:   0.008 TIME LEFT:  2.00D  GRAD.:     4.612 HEAT:  7698.590
 CYCLE:   145 TIME:   0.008 TIME LEFT:  2.00D  GRAD.:     4.319 HEAT:  7702.631
 CYCLE:   146 TIME:   0.008 TIME LEFT:  2.00D  GRAD.:     4.612 HEAT:  7698.590
 CYCLE:   147 TIME:   0.008 TIME LEFT:  2.00D  GRAD.:     4.319 HEAT:  7702.631
 CYCLE:   148 TIME:   0.008 TIME LEFT:  2.00D  GRAD.:     4.612 HEAT:  7698.590
 CYCLE:   149 TIME:   0.008 TIME LEFT:  2.00D  GRAD.:     4.319 HEAT:  7702.631
 CYCLE:   150 TIME:   0.008 TIME LEFT:  2.00D  GRAD.:     4.612 HEAT:  7698.590
 CYCLE:   151 TIME:   0.008 TIME LEFT:  2.00D  GRAD.:     4.319 HEAT:  7702.631
 CYCLE:   152 TIME:   0.008 TIME LEFT:  2.00D  GRAD.:     4.612 HEAT:  7698.590
 CYCLE:   153 TIME:   0.016 TIME LEFT:  2.00D  GRAD.:     4.319 HEAT:  7702.631
 CYCLE:   154 TIME:   0.008 TIME LEFT:  2.00D  GRAD.:     4.612 HEAT:  7698.590
 CYCLE:   155 TIME:   0.008 TIME LEFT:  2.00D  GRAD.:     4.319 HEAT:  7702.631
 CYCLE:   156 TIME:   0.008 TIME LEFT:  2.00D  GRAD.:     4.612 HEAT:  7698.590
 CYCLE:   157 TIME:   0.008 TIME LEFT:  2.00D  GRAD.:     4.319 HEAT:  7702.631
 CYCLE:   158 TIME:   0.008 TIME LEFT:  2.00D  GRAD.:     4.612 HEAT:  7698.590
 CYCLE:   159 TIME:   0.008 TIME LEFT:  2.00D  GRAD.:     4.319 HEAT:  7702.631
 CYCLE:   160 TIME:   0.008 TIME LEFT:  2.00D  GRAD.:     4.612 HEAT:  7698.590
 CYCLE:   161 TIME:   0.008 TIME LEFT:  2.00D  GRAD.:     4.319 HEAT:  7702.631
 CYCLE:   162 TIME:   0.016 TIME LEFT:  2.00D  GRAD.:     4.612 HEAT:  7698.590
 CYCLE:   163 TIME:   0.008 TIME LEFT:  2.00D  GRAD.:     4.319 HEAT:  7702.631
 CYCLE:   164 TIME:   0.008 TIME LEFT:  2.00D  GRAD.:     4.612 HEAT:  7698.590
 CYCLE:   165 TIME:   0.008 TIME LEFT:  2.00D  GRAD.:     4.319 HEAT:  7702.631
 CYCLE:   166 TIME:   0.008 TIME LEFT:  2.00D  GRAD.:     4.612 HEAT:  7698.590
 CYCLE:   167 TIME:   0.008 TIME LEFT:  2.00D  GRAD.:     4.319 HEAT:  7702.631
 CYCLE:   168 TIME:   0.008 TIME LEFT:  2.00D  GRAD.:     4.612 HEAT:  7698.590
 CYCLE:   169 TIME:   0.008 TIME LEFT:  2.00D  GRAD.:     4.319 HEAT:  7702.631
 CYCLE:   170 TIME:   0.008 TIME LEFT:  2.00D  GRAD.:     4.612 HEAT:  7698.590
 CYCLE:   171 TIME:   0.008 TIME LEFT:  2.00D  GRAD.:     4.319 HEAT:  7702.631
 CYCLE:   172 TIME:   0.008 TIME LEFT:  2.00D  GRAD.:     4.612 HEAT:  7698.590
 CYCLE:   173 TIME:   0.008 TIME LEFT:  2.00D  GRAD.:     4.319 HEAT:  7702.631
 CYCLE:   174 TIME:   0.008 TIME LEFT:  2.00D  GRAD.:     4.612 HEAT:  7698.590
 CYCLE:   175 TIME:   0.016 TIME LEFT:  2.00D  GRAD.:     4.319 HEAT:  7702.631
 CYCLE:   176 TIME:   0.008 TIME LEFT:  2.00D  GRAD.:     4.612 HEAT:  7698.590
 CYCLE:   177 TIME:   0.000 TIME LEFT:  2.00D  GRAD.:     4.319 HEAT:  7702.631
 CYCLE:   178 TIME:   0.016 TIME LEFT:  2.00D  GRAD.:     4.612 HEAT:  7698.590
 CYCLE:   179 TIME:   0.008 TIME LEFT:  2.00D  GRAD.:     4.319 HEAT:  7702.631
 CYCLE:   180 TIME:   0.000 TIME LEFT:  2.00D  GRAD.:     4.612 HEAT:  7698.590
 CYCLE:   181 TIME:   0.008 TIME LEFT:  2.00D  GRAD.:     4.319 HEAT:  7702.631
 CYCLE:   182 TIME:   0.016 TIME LEFT:  2.00D  GRAD.:     4.612 HEAT:  7698.590
 CYCLE:   183 TIME:   0.008 TIME LEFT:  2.00D  GRAD.:     4.319 HEAT:  7702.631
 CYCLE:   184 TIME:   0.008 TIME LEFT:  2.00D  GRAD.:     4.612 HEAT:  7698.590
 CYCLE:   185 TIME:   0.008 TIME LEFT:  2.00D  GRAD.:     4.319 HEAT:  7702.631
 CYCLE:   186 TIME:   0.008 TIME LEFT:  2.00D  GRAD.:     4.612 HEAT:  7698.590
 CYCLE:   187 TIME:   0.008 TIME LEFT:  2.00D  GRAD.:     4.319 HEAT:  7702.631
 CYCLE:   188 TIME:   0.008 TIME LEFT:  2.00D  GRAD.:     4.612 HEAT:  7698.590
 CYCLE:   189 TIME:   0.008 TIME LEFT:  2.00D  GRAD.:     4.319 HEAT:  7702.631
 CYCLE:   190 TIME:   0.016 TIME LEFT:  2.00D  GRAD.:     4.612 HEAT:  7698.590
 CYCLE:   191 TIME:   0.008 TIME LEFT:  2.00D  GRAD.:     4.319 HEAT:  7702.631
 CYCLE:   192 TIME:   0.008 TIME LEFT:  2.00D  GRAD.:     4.612 HEAT:  7698.590
 CYCLE:   193 TIME:   0.008 TIME LEFT:  2.00D  GRAD.:     4.319 HEAT:  7702.631
 CYCLE:   194 TIME:   0.008 TIME LEFT:  2.00D  GRAD.:     4.612 HEAT:  7698.590
 CYCLE:   195 TIME:   0.008 TIME LEFT:  2.00D  GRAD.:     4.319 HEAT:  7702.631
 CYCLE:   196 TIME:   0.008 TIME LEFT:  2.00D  GRAD.:     4.612 HEAT:  7698.590
 CYCLE:   197 TIME:   0.016 TIME LEFT:  2.00D  GRAD.:     4.319 HEAT:  7702.631
 CYCLE:   198 TIME:   0.008 TIME LEFT:  2.00D  GRAD.:     4.612 HEAT:  7698.589
 CYCLE:   199 TIME:   0.008 TIME LEFT:  2.00D  GRAD.:     4.319 HEAT:  7702.631
 CYCLE:   200 TIME:   0.008 TIME LEFT:  2.00D  GRAD.:     4.612 HEAT:  7698.589
 CYCLE:   201 TIME:   0.008 TIME LEFT:  2.00D  GRAD.:     4.319 HEAT:  7702.631
 CYCLE:   202 TIME:   0.008 TIME LEFT:  2.00D  GRAD.:     4.612 HEAT:  7698.589
 CYCLE:   203 TIME:   0.008 TIME LEFT:  2.00D  GRAD.:     4.319 HEAT:  7702.631
 CYCLE:   204 TIME:   0.016 TIME LEFT:  2.00D  GRAD.:     4.612 HEAT:  7698.589
 CYCLE:   205 TIME:   0.008 TIME LEFT:  2.00D  GRAD.:     4.319 HEAT:  7702.631
 CYCLE:   206 TIME:   0.008 TIME LEFT:  2.00D  GRAD.:     4.612 HEAT:  7698.589
 CYCLE:   207 TIME:   0.008 TIME LEFT:  2.00D  GRAD.:     4.319 HEAT:  7702.631
 CYCLE:   208 TIME:   0.008 TIME LEFT:  2.00D  GRAD.:     4.612 HEAT:  7698.589
 CYCLE:   209 TIME:   0.008 TIME LEFT:  2.00D  GRAD.:     4.319 HEAT:  7702.631
 CYCLE:   210 TIME:   0.008 TIME LEFT:  2.00D  GRAD.:     4.612 HEAT:  7698.589
 CYCLE:   211 TIME:   0.016 TIME LEFT:  2.00D  GRAD.:     4.319 HEAT:  7702.631
 CYCLE:   212 TIME:   0.008 TIME LEFT:  2.00D  GRAD.:     4.612 HEAT:  7698.589
 CYCLE:   213 TIME:   0.008 TIME LEFT:  2.00D  GRAD.:     4.319 HEAT:  7702.631
 CYCLE:   214 TIME:   0.008 TIME LEFT:  2.00D  GRAD.:     4.612 HEAT:  7698.589
 CYCLE:   215 TIME:   0.008 TIME LEFT:  2.00D  GRAD.:     4.319 HEAT:  7702.631
 CYCLE:   216 TIME:   0.008 TIME LEFT:  2.00D  GRAD.:     4.612 HEAT:  7698.589
 CYCLE:   217 TIME:   0.008 TIME LEFT:  2.00D  GRAD.:     4.319 HEAT:  7702.631
 CYCLE:   218 TIME:   0.008 TIME LEFT:  2.00D  GRAD.:     4.612 HEAT:  7698.589
 CYCLE:   219 TIME:   0.008 TIME LEFT:  2.00D  GRAD.:     4.319 HEAT:  7702.631
 CYCLE:   220 TIME:   0.008 TIME LEFT:  2.00D  GRAD.:     4.612 HEAT:  7698.589
 CYCLE:   221 TIME:   0.008 TIME LEFT:  2.00D  GRAD.:     4.319 HEAT:  7702.631
 CYCLE:   222 TIME:   0.008 TIME LEFT:  2.00D  GRAD.:     4.612 HEAT:  7698.589
 CYCLE:   223 TIME:   0.008 TIME LEFT:  2.00D  GRAD.:     4.319 HEAT:  7702.631
 CYCLE:   224 TIME:   0.008 TIME LEFT:  2.00D  GRAD.:     4.612 HEAT:  7698.589
 CYCLE:   225 TIME:   0.016 TIME LEFT:  2.00D  GRAD.:     4.319 HEAT:  7702.630
 CYCLE:   226 TIME:   0.008 TIME LEFT:  2.00D  GRAD.:     4.612 HEAT:  7698.589
 CYCLE:   227 TIME:   0.008 TIME LEFT:  2.00D  GRAD.:     4.319 HEAT:  7702.630
 CYCLE:   228 TIME:   0.008 TIME LEFT:  2.00D  GRAD.:     4.612 HEAT:  7698.589
 CYCLE:   229 TIME:   0.000 TIME LEFT:  2.00D  GRAD.:     4.319 HEAT:  7702.630
 CYCLE:   230 TIME:   0.008 TIME LEFT:  2.00D  GRAD.:     4.612 HEAT:  7698.589
 CYCLE:   231 TIME:   0.008 TIME LEFT:  2.00D  GRAD.:     4.319 HEAT:  7702.630
 CYCLE:   232 TIME:   0.008 TIME LEFT:  2.00D  GRAD.:     4.612 HEAT:  7698.589
 CYCLE:   233 TIME:   0.008 TIME LEFT:  2.00D  GRAD.:     4.319 HEAT:  7702.630
 CYCLE:   234 TIME:   0.016 TIME LEFT:  2.00D  GRAD.:     4.612 HEAT:  7698.589
 CYCLE:   235 TIME:   0.008 TIME LEFT:  2.00D  GRAD.:     4.319 HEAT:  7702.630
 CYCLE:   236 TIME:   0.008 TIME LEFT:  2.00D  GRAD.:     4.612 HEAT:  7698.589
 CYCLE:   237 TIME:   0.008 TIME LEFT:  2.00D  GRAD.:     4.319 HEAT:  7702.630
 CYCLE:   238 TIME:   0.008 TIME LEFT:  2.00D  GRAD.:     4.612 HEAT:  7698.589
 CYCLE:   239 TIME:   0.008 TIME LEFT:  2.00D  GRAD.:     4.319 HEAT:  7702.630
 CYCLE:   240 TIME:   0.016 TIME LEFT:  2.00D  GRAD.:     4.612 HEAT:  7698.589
 CYCLE:   241 TIME:   0.008 TIME LEFT:  2.00D  GRAD.:     4.319 HEAT:  7702.630
 CYCLE:   242 TIME:   0.008 TIME LEFT:  2.00D  GRAD.:     4.612 HEAT:  7698.589
 CYCLE:   243 TIME:   0.008 TIME LEFT:  2.00D  GRAD.:     4.319 HEAT:  7702.630
 CYCLE:   244 TIME:   0.008 TIME LEFT:  2.00D  GRAD.:     4.612 HEAT:  7698.589
 CYCLE:   245 TIME:   0.008 TIME LEFT:  2.00D  GRAD.:     4.319 HEAT:  7702.630
 CYCLE:   246 TIME:   0.008 TIME LEFT:  2.00D  GRAD.:     4.612 HEAT:  7698.589
 CYCLE:   247 TIME:   0.008 TIME LEFT:  2.00D  GRAD.:     4.319 HEAT:  7702.630
 CYCLE:   248 TIME:   0.008 TIME LEFT:  2.00D  GRAD.:     4.612 HEAT:  7698.589
 CYCLE:   249 TIME:   0.008 TIME LEFT:  2.00D  GRAD.:     4.319 HEAT:  7702.630
 CYCLE:   250 TIME:   0.008 TIME LEFT:  2.00D  GRAD.:     4.612 HEAT:  7698.589
 CYCLE:   251 TIME:   0.008 TIME LEFT:  2.00D  GRAD.:     4.319 HEAT:  7702.630
 CYCLE:   252 TIME:   0.008 TIME LEFT:  2.00D  GRAD.:     4.612 HEAT:  7698.589
 CYCLE:   253 TIME:   0.008 TIME LEFT:  2.00D  GRAD.:     4.319 HEAT:  7702.630
 CYCLE:   254 TIME:   0.008 TIME LEFT:  2.00D  GRAD.:     4.612 HEAT:  7698.589
 CYCLE:   255 TIME:   0.008 TIME LEFT:  2.00D  GRAD.:     4.319 HEAT:  7702.630
 CYCLE:   256 TIME:   0.008 TIME LEFT:  2.00D  GRAD.:     4.612 HEAT:  7698.589
 CYCLE:   257 TIME:   0.008 TIME LEFT:  2.00D  GRAD.:     4.319 HEAT:  7702.630
 CYCLE:   258 TIME:   0.008 TIME LEFT:  2.00D  GRAD.:     4.612 HEAT:  7698.589
 CYCLE:   259 TIME:   0.008 TIME LEFT:  2.00D  GRAD.:     4.319 HEAT:  7702.630
 CYCLE:   260 TIME:   0.008 TIME LEFT:  2.00D  GRAD.:     4.612 HEAT:  7698.589
 CYCLE:   261 TIME:   0.008 TIME LEFT:  2.00D  GRAD.:     4.319 HEAT:  7702.630
 CYCLE:   262 TIME:   0.008 TIME LEFT:  2.00D  GRAD.:     4.612 HEAT:  7698.589
 CYCLE:   263 TIME:   0.008 TIME LEFT:  2.00D  GRAD.:     4.319 HEAT:  7702.630
 CYCLE:   264 TIME:   0.008 TIME LEFT:  2.00D  GRAD.:     4.612 HEAT:  7698.589
 CYCLE:   265 TIME:   0.008 TIME LEFT:  2.00D  GRAD.:     4.319 HEAT:  7702.630
 CYCLE:   266 TIME:   0.008 TIME LEFT:  2.00D  GRAD.:     4.612 HEAT:  7698.589
 CYCLE:   267 TIME:   0.008 TIME LEFT:  2.00D  GRAD.:     4.319 HEAT:  7702.630
 CYCLE:   268 TIME:   0.008 TIME LEFT:  2.00D  GRAD.:     4.612 HEAT:  7698.589
 CYCLE:   269 TIME:   0.008 TIME LEFT:  2.00D  GRAD.:     4.319 HEAT:  7702.630
 CYCLE:   270 TIME:   0.008 TIME LEFT:  2.00D  GRAD.:     4.612 HEAT:  7698.589
 CYCLE:   271 TIME:   0.016 TIME LEFT:  2.00D  GRAD.:     4.319 HEAT:  7702.630
 CYCLE:   272 TIME:   0.016 TIME LEFT:  2.00D  GRAD.:     4.612 HEAT:  7698.589
 CYCLE:   273 TIME:   0.008 TIME LEFT:  2.00D  GRAD.:     4.319 HEAT:  7702.630
 CYCLE:   274 TIME:   0.008 TIME LEFT:  2.00D  GRAD.:     4.612 HEAT:  7698.589
 CYCLE:   275 TIME:   0.008 TIME LEFT:  2.00D  GRAD.:     4.319 HEAT:  7702.630
 CYCLE:   276 TIME:   0.008 TIME LEFT:  2.00D  GRAD.:     4.612 HEAT:  7698.589
 CYCLE:   277 TIME:   0.000 TIME LEFT:  2.00D  GRAD.:     4.319 HEAT:  7702.630
 CYCLE:   278 TIME:   0.016 TIME LEFT:  2.00D  GRAD.:     4.612 HEAT:  7698.589
 CYCLE:   279 TIME:   0.008 TIME LEFT:  2.00D  GRAD.:     4.319 HEAT:  7702.630
 CYCLE:   280 TIME:   0.008 TIME LEFT:  2.00D  GRAD.:     4.612 HEAT:  7698.589
 CYCLE:   281 TIME:   0.008 TIME LEFT:  2.00D  GRAD.:     4.319 HEAT:  7702.630
 CYCLE:   282 TIME:   0.008 TIME LEFT:  2.00D  GRAD.:     4.612 HEAT:  7698.589
 CYCLE:   283 TIME:   0.008 TIME LEFT:  2.00D  GRAD.:     4.319 HEAT:  7702.630
 CYCLE:   284 TIME:   0.008 TIME LEFT:  2.00D  GRAD.:     4.612 HEAT:  7698.589
 CYCLE:   285 TIME:   0.008 TIME LEFT:  2.00D  GRAD.:     4.319 HEAT:  7702.630
 CYCLE:   286 TIME:   0.008 TIME LEFT:  2.00D  GRAD.:     4.612 HEAT:  7698.589
 CYCLE:   287 TIME:   0.008 TIME LEFT:  2.00D  GRAD.:     4.319 HEAT:  7702.630
 CYCLE:   288 TIME:   0.008 TIME LEFT:  2.00D  GRAD.:     4.612 HEAT:  7698.589
 CYCLE:   289 TIME:   0.008 TIME LEFT:  2.00D  GRAD.:     4.319 HEAT:  7702.630
 CYCLE:   290 TIME:   0.008 TIME LEFT:  2.00D  GRAD.:     4.612 HEAT:  7698.589
 CYCLE:   291 TIME:   0.008 TIME LEFT:  2.00D  GRAD.:     4.319 HEAT:  7702.630
 CYCLE:   292 TIME:   0.008 TIME LEFT:  2.00D  GRAD.:     4.612 HEAT:  7698.589
 CYCLE:   293 TIME:   0.008 TIME LEFT:  2.00D  GRAD.:     4.319 HEAT:  7702.630
 CYCLE:   294 TIME:   0.008 TIME LEFT:  2.00D  GRAD.:     4.612 HEAT:  7698.589
 CYCLE:   295 TIME:   0.008 TIME LEFT:  2.00D  GRAD.:     4.319 HEAT:  7702.630
 CYCLE:   296 TIME:   0.008 TIME LEFT:  2.00D  GRAD.:     4.612 HEAT:  7698.589
 CYCLE:   297 TIME:   0.008 TIME LEFT:  2.00D  GRAD.:     4.319 HEAT:  7702.630
 CYCLE:   298 TIME:   0.008 TIME LEFT:  2.00D  GRAD.:     4.612 HEAT:  7698.589
 CYCLE:   299 TIME:   0.008 TIME LEFT:  2.00D  GRAD.:     4.319 HEAT:  7702.630
 CYCLE:   300 TIME:   0.008 TIME LEFT:  2.00D  GRAD.:     4.612 HEAT:  7698.589
 CYCLE:   301 TIME:   0.016 TIME LEFT:  2.00D  GRAD.:     4.319 HEAT:  7702.630
 CYCLE:   302 TIME:   0.008 TIME LEFT:  2.00D  GRAD.:     4.612 HEAT:  7698.589
 CYCLE:   303 TIME:   0.008 TIME LEFT:  2.00D  GRAD.:     4.319 HEAT:  7702.630
 CYCLE:   304 TIME:   0.000 TIME LEFT:  2.00D  GRAD.:     4.612 HEAT:  7698.589
 CYCLE:   305 TIME:   0.008 TIME LEFT:  2.00D  GRAD.:     4.319 HEAT:  7702.630
 CYCLE:   306 TIME:   0.016 TIME LEFT:  2.00D  GRAD.:     4.612 HEAT:  7698.589
 CYCLE:   307 TIME:   0.008 TIME LEFT:  2.00D  GRAD.:     4.319 HEAT:  7702.630
 CYCLE:   308 TIME:   0.008 TIME LEFT:  2.00D  GRAD.:     4.612 HEAT:  7698.589
 CYCLE:   309 TIME:   0.008 TIME LEFT:  2.00D  GRAD.:     4.319 HEAT:  7702.630
 CYCLE:   310 TIME:   0.008 TIME LEFT:  2.00D  GRAD.:     4.612 HEAT:  7698.589
 CYCLE:   311 TIME:   0.008 TIME LEFT:  2.00D  GRAD.:     4.319 HEAT:  7702.630
 CYCLE:   312 TIME:   0.008 TIME LEFT:  2.00D  GRAD.:     4.612 HEAT:  7698.589
 CYCLE:   313 TIME:   0.016 TIME LEFT:  2.00D  GRAD.:     4.319 HEAT:  7702.630
 CYCLE:   314 TIME:   0.008 TIME LEFT:  2.00D  GRAD.:     4.612 HEAT:  7698.589
 CYCLE:   315 TIME:   0.016 TIME LEFT:  2.00D  GRAD.:     4.319 HEAT:  7702.630
 CYCLE:   316 TIME:   0.008 TIME LEFT:  2.00D  GRAD.:     4.612 HEAT:  7698.589
 CYCLE:   317 TIME:   0.008 TIME LEFT:  2.00D  GRAD.:     4.319 HEAT:  7702.630
 CYCLE:   318 TIME:   0.008 TIME LEFT:  2.00D  GRAD.:     4.612 HEAT:  7698.589
 CYCLE:   319 TIME:   0.008 TIME LEFT:  2.00D  GRAD.:     4.319 HEAT:  7702.630
 CYCLE:   320 TIME:   0.008 TIME LEFT:  2.00D  GRAD.:     4.612 HEAT:  7698.589
 CYCLE:   321 TIME:   0.008 TIME LEFT:  2.00D  GRAD.:     4.319 HEAT:  7702.630
 CYCLE:   322 TIME:   0.008 TIME LEFT:  2.00D  GRAD.:     4.612 HEAT:  7698.589
 CYCLE:   323 TIME:   0.008 TIME LEFT:  2.00D  GRAD.:     4.319 HEAT:  7702.630
 CYCLE:   324 TIME:   0.008 TIME LEFT:  2.00D  GRAD.:     4.612 HEAT:  7698.589
 CYCLE:   325 TIME:   0.008 TIME LEFT:  2.00D  GRAD.:     4.319 HEAT:  7702.630
 CYCLE:   326 TIME:   0.008 TIME LEFT:  2.00D  GRAD.:     4.612 HEAT:  7698.589
 CYCLE:   327 TIME:   0.008 TIME LEFT:  2.00D  GRAD.:     4.319 HEAT:  7702.630
 CYCLE:   328 TIME:   0.008 TIME LEFT:  2.00D  GRAD.:     4.612 HEAT:  7698.589
 CYCLE:   329 TIME:   0.008 TIME LEFT:  2.00D  GRAD.:     4.319 HEAT:  7702.630
 CYCLE:   330 TIME:   0.008 TIME LEFT:  2.00D  GRAD.:     4.612 HEAT:  7698.589
 CYCLE:   331 TIME:   0.008 TIME LEFT:  2.00D  GRAD.:     4.319 HEAT:  7702.630
 CYCLE:   332 TIME:   0.008 TIME LEFT:  2.00D  GRAD.:     4.612 HEAT:  7698.589
 CYCLE:   333 TIME:   0.008 TIME LEFT:  2.00D  GRAD.:     4.319 HEAT:  7702.630
 CYCLE:   334 TIME:   0.016 TIME LEFT:  2.00D  GRAD.:     4.612 HEAT:  7698.589
 CYCLE:   335 TIME:   0.008 TIME LEFT:  2.00D  GRAD.:     4.319 HEAT:  7702.630
 CYCLE:   336 TIME:   0.008 TIME LEFT:  2.00D  GRAD.:     4.612 HEAT:  7698.589
 CYCLE:   337 TIME:   0.008 TIME LEFT:  2.00D  GRAD.:     4.319 HEAT:  7702.630
 CYCLE:   338 TIME:   0.008 TIME LEFT:  2.00D  GRAD.:     4.612 HEAT:  7698.589
 CYCLE:   339 TIME:   0.008 TIME LEFT:  2.00D  GRAD.:     4.319 HEAT:  7702.630
 CYCLE:   340 TIME:   0.008 TIME LEFT:  2.00D  GRAD.:     4.612 HEAT:  7698.589
 CYCLE:   341 TIME:   0.008 TIME LEFT:  2.00D  GRAD.:     4.319 HEAT:  7702.630
 CYCLE:   342 TIME:   0.008 TIME LEFT:  2.00D  GRAD.:     4.612 HEAT:  7698.589
 CYCLE:   343 TIME:   0.008 TIME LEFT:  2.00D  GRAD.:     4.319 HEAT:  7702.630
 CYCLE:   344 TIME:   0.008 TIME LEFT:  2.00D  GRAD.:     4.612 HEAT:  7698.589
 CYCLE:   345 TIME:   0.016 TIME LEFT:  2.00D  GRAD.:     4.319 HEAT:  7702.630
 CYCLE:   346 TIME:   0.008 TIME LEFT:  2.00D  GRAD.:     4.612 HEAT:  7698.589
 CYCLE:   347 TIME:   0.008 TIME LEFT:  2.00D  GRAD.:     4.319 HEAT:  7702.630
 CYCLE:   348 TIME:   0.008 TIME LEFT:  2.00D  GRAD.:     4.612 HEAT:  7698.589
 CYCLE:   349 TIME:   0.000 TIME LEFT:  2.00D  GRAD.:     4.319 HEAT:  7702.630
 CYCLE:   350 TIME:   0.008 TIME LEFT:  2.00D  GRAD.:     4.612 HEAT:  7698.589
 CYCLE:   351 TIME:   0.016 TIME LEFT:  2.00D  GRAD.:     4.319 HEAT:  7702.630
 CYCLE:   352 TIME:   0.008 TIME LEFT:  2.00D  GRAD.:     4.612 HEAT:  7698.589
 CYCLE:   353 TIME:   0.008 TIME LEFT:  2.00D  GRAD.:     4.319 HEAT:  7702.630
 CYCLE:   354 TIME:   0.008 TIME LEFT:  2.00D  GRAD.:     4.612 HEAT:  7698.589
 CYCLE:   355 TIME:   0.008 TIME LEFT:  2.00D  GRAD.:     4.319 HEAT:  7702.630
 CYCLE:   356 TIME:   0.008 TIME LEFT:  2.00D  GRAD.:     4.612 HEAT:  7698.589
 CYCLE:   357 TIME:   0.008 TIME LEFT:  2.00D  GRAD.:     4.319 HEAT:  7702.630
 CYCLE:   358 TIME:   0.008 TIME LEFT:  2.00D  GRAD.:     4.612 HEAT:  7698.589
 CYCLE:   359 TIME:   0.008 TIME LEFT:  2.00D  GRAD.:     4.319 HEAT:  7702.630
 CYCLE:   360 TIME:   0.008 TIME LEFT:  2.00D  GRAD.:     4.612 HEAT:  7698.589
 CYCLE:   361 TIME:   0.008 TIME LEFT:  2.00D  GRAD.:     4.319 HEAT:  7702.630
 CYCLE:   362 TIME:   0.008 TIME LEFT:  2.00D  GRAD.:     4.612 HEAT:  7698.589
 CYCLE:   363 TIME:   0.008 TIME LEFT:  2.00D  GRAD.:     4.319 HEAT:  7702.630
 CYCLE:   364 TIME:   0.008 TIME LEFT:  2.00D  GRAD.:     4.612 HEAT:  7698.589
 CYCLE:   365 TIME:   0.008 TIME LEFT:  2.00D  GRAD.:     4.319 HEAT:  7702.630
 CYCLE:   366 TIME:   0.008 TIME LEFT:  2.00D  GRAD.:     4.612 HEAT:  7698.589
 CYCLE:   367 TIME:   0.008 TIME LEFT:  2.00D  GRAD.:     4.319 HEAT:  7702.630
 CYCLE:   368 TIME:   0.008 TIME LEFT:  2.00D  GRAD.:     4.612 HEAT:  7698.589
 CYCLE:   369 TIME:   0.008 TIME LEFT:  2.00D  GRAD.:     4.319 HEAT:  7702.630
 CYCLE:   370 TIME:   0.008 TIME LEFT:  2.00D  GRAD.:     4.612 HEAT:  7698.589
 CYCLE:   371 TIME:   0.008 TIME LEFT:  2.00D  GRAD.:     4.319 HEAT:  7702.630
 CYCLE:   372 TIME:   0.008 TIME LEFT:  2.00D  GRAD.:     4.612 HEAT:  7698.589
 CYCLE:   373 TIME:   0.016 TIME LEFT:  2.00D  GRAD.:     4.319 HEAT:  7702.630
 CYCLE:   374 TIME:   0.000 TIME LEFT:  2.00D  GRAD.:     4.612 HEAT:  7698.589
 CYCLE:   375 TIME:   0.008 TIME LEFT:  2.00D  GRAD.:     4.319 HEAT:  7702.630
 CYCLE:   376 TIME:   0.008 TIME LEFT:  2.00D  GRAD.:     4.612 HEAT:  7698.589
 CYCLE:   377 TIME:   0.008 TIME LEFT:  2.00D  GRAD.:     4.319 HEAT:  7702.630
 CYCLE:   378 TIME:   0.016 TIME LEFT:  2.00D  GRAD.:     4.612 HEAT:  7698.589
 CYCLE:   379 TIME:   0.000 TIME LEFT:  2.00D  GRAD.:     4.319 HEAT:  7702.630
 CYCLE:   380 TIME:   0.008 TIME LEFT:  2.00D  GRAD.:     4.612 HEAT:  7698.589
 CYCLE:   381 TIME:   0.008 TIME LEFT:  2.00D  GRAD.:     4.319 HEAT:  7702.630
 CYCLE:   382 TIME:   0.008 TIME LEFT:  2.00D  GRAD.:     4.612 HEAT:  7698.589
 CYCLE:   383 TIME:   0.008 TIME LEFT:  2.00D  GRAD.:     4.319 HEAT:  7702.630
 CYCLE:   384 TIME:   0.008 TIME LEFT:  2.00D  GRAD.:     4.612 HEAT:  7698.589
 CYCLE:   385 TIME:   0.008 TIME LEFT:  2.00D  GRAD.:     4.319 HEAT:  7702.630
 CYCLE:   386 TIME:   0.008 TIME LEFT:  2.00D  GRAD.:     4.612 HEAT:  7698.589
 CYCLE:   387 TIME:   0.016 TIME LEFT:  2.00D  GRAD.:     4.319 HEAT:  7702.630
 CYCLE:   388 TIME:   0.008 TIME LEFT:  2.00D  GRAD.:     4.612 HEAT:  7698.589
 CYCLE:   389 TIME:   0.008 TIME LEFT:  2.00D  GRAD.:     4.319 HEAT:  7702.630
 CYCLE:   390 TIME:   0.008 TIME LEFT:  2.00D  GRAD.:     4.612 HEAT:  7698.589
 CYCLE:   391 TIME:   0.008 TIME LEFT:  2.00D  GRAD.:     4.319 HEAT:  7702.630
 CYCLE:   392 TIME:   0.008 TIME LEFT:  2.00D  GRAD.:     4.612 HEAT:  7698.589
 CYCLE:   393 TIME:   0.008 TIME LEFT:  2.00D  GRAD.:     4.319 HEAT:  7702.630
 CYCLE:   394 TIME:   0.008 TIME LEFT:  2.00D  GRAD.:     4.612 HEAT:  7698.589
 CYCLE:   395 TIME:   0.008 TIME LEFT:  2.00D  GRAD.:     4.319 HEAT:  7702.630
 CYCLE:   396 TIME:   0.016 TIME LEFT:  2.00D  GRAD.:     4.612 HEAT:  7698.589
 CYCLE:   397 TIME:   0.008 TIME LEFT:  2.00D  GRAD.:     4.319 HEAT:  7702.630
 CYCLE:   398 TIME:   0.008 TIME LEFT:  2.00D  GRAD.:     4.612 HEAT:  7698.589
 CYCLE:   399 TIME:   0.008 TIME LEFT:  2.00D  GRAD.:     4.319 HEAT:  7702.630
 CYCLE:   400 TIME:   0.008 TIME LEFT:  2.00D  GRAD.:     4.612 HEAT:  7698.589
 CYCLE:   401 TIME:   0.008 TIME LEFT:  2.00D  GRAD.:     4.319 HEAT:  7702.630
 CYCLE:   402 TIME:   0.008 TIME LEFT:  2.00D  GRAD.:     4.612 HEAT:  7698.589
 CYCLE:   403 TIME:   0.008 TIME LEFT:  2.00D  GRAD.:     4.319 HEAT:  7702.630
 CYCLE:   404 TIME:   0.008 TIME LEFT:  2.00D  GRAD.:     4.612 HEAT:  7698.589
 CYCLE:   405 TIME:   0.008 TIME LEFT:  2.00D  GRAD.:     4.319 HEAT:  7702.630
 CYCLE:   406 TIME:   0.008 TIME LEFT:  2.00D  GRAD.:     4.612 HEAT:  7698.589
 CYCLE:   407 TIME:   0.008 TIME LEFT:  2.00D  GRAD.:     4.319 HEAT:  7702.630
 CYCLE:   408 TIME:   0.008 TIME LEFT:  2.00D  GRAD.:     4.612 HEAT:  7698.589
 CYCLE:   409 TIME:   0.008 TIME LEFT:  2.00D  GRAD.:     4.319 HEAT:  7702.630
 CYCLE:   410 TIME:   0.008 TIME LEFT:  2.00D  GRAD.:     4.612 HEAT:  7698.589
 CYCLE:   411 TIME:   0.008 TIME LEFT:  2.00D  GRAD.:     4.319 HEAT:  7702.630
 CYCLE:   412 TIME:   0.008 TIME LEFT:  2.00D  GRAD.:     4.612 HEAT:  7698.589
 CYCLE:   413 TIME:   0.008 TIME LEFT:  2.00D  GRAD.:     4.319 HEAT:  7702.630
 CYCLE:   414 TIME:   0.008 TIME LEFT:  2.00D  GRAD.:     4.612 HEAT:  7698.589
 CYCLE:   415 TIME:   0.008 TIME LEFT:  2.00D  GRAD.:     4.319 HEAT:  7702.630
 CYCLE:   416 TIME:   0.008 TIME LEFT:  2.00D  GRAD.:     4.612 HEAT:  7698.589
 CYCLE:   417 TIME:   0.016 TIME LEFT:  2.00D  GRAD.:     4.319 HEAT:  7702.630
 CYCLE:   418 TIME:   0.000 TIME LEFT:  2.00D  GRAD.:     4.612 HEAT:  7698.589
 CYCLE:   419 TIME:   0.016 TIME LEFT:  2.00D  GRAD.:     4.319 HEAT:  7702.630
 CYCLE:   420 TIME:   0.008 TIME LEFT:  2.00D  GRAD.:     4.612 HEAT:  7698.589
 CYCLE:   421 TIME:   0.008 TIME LEFT:  2.00D  GRAD.:     4.319 HEAT:  7702.630
 CYCLE:   422 TIME:   0.008 TIME LEFT:  2.00D  GRAD.:     4.612 HEAT:  7698.589
 CYCLE:   423 TIME:   0.008 TIME LEFT:  2.00D  GRAD.:     4.319 HEAT:  7702.630
 CYCLE:   424 TIME:   0.008 TIME LEFT:  2.00D  GRAD.:     4.612 HEAT:  7698.589
 CYCLE:   425 TIME:   0.008 TIME LEFT:  2.00D  GRAD.:     4.319 HEAT:  7702.630
 CYCLE:   426 TIME:   0.016 TIME LEFT:  2.00D  GRAD.:     4.612 HEAT:  7698.589
 CYCLE:   427 TIME:   0.008 TIME LEFT:  2.00D  GRAD.:     4.319 HEAT:  7702.630
 CYCLE:   428 TIME:   0.008 TIME LEFT:  2.00D  GRAD.:     4.612 HEAT:  7698.589
 CYCLE:   429 TIME:   0.000 TIME LEFT:  2.00D  GRAD.:     4.319 HEAT:  7702.630
 CYCLE:   430 TIME:   0.016 TIME LEFT:  2.00D  GRAD.:     4.612 HEAT:  7698.589
 CYCLE:   431 TIME:   0.008 TIME LEFT:  2.00D  GRAD.:     4.319 HEAT:  7702.630
 CYCLE:   432 TIME:   0.008 TIME LEFT:  2.00D  GRAD.:     4.612 HEAT:  7698.589
 CYCLE:   433 TIME:   0.008 TIME LEFT:  2.00D  GRAD.:     4.319 HEAT:  7702.630
 CYCLE:   434 TIME:   0.008 TIME LEFT:  2.00D  GRAD.:     4.612 HEAT:  7698.589
 CYCLE:   435 TIME:   0.016 TIME LEFT:  2.00D  GRAD.:     4.319 HEAT:  7702.630
 CYCLE:   436 TIME:   0.008 TIME LEFT:  2.00D  GRAD.:     4.612 HEAT:  7698.589
 CYCLE:   437 TIME:   0.008 TIME LEFT:  2.00D  GRAD.:     4.319 HEAT:  7702.630
 CYCLE:   438 TIME:   0.008 TIME LEFT:  2.00D  GRAD.:     4.612 HEAT:  7698.589
 CYCLE:   439 TIME:   0.008 TIME LEFT:  2.00D  GRAD.:     4.319 HEAT:  7702.630
 CYCLE:   440 TIME:   0.008 TIME LEFT:  2.00D  GRAD.:     4.612 HEAT:  7698.589
 CYCLE:   441 TIME:   0.016 TIME LEFT:  2.00D  GRAD.:     4.319 HEAT:  7702.630
 CYCLE:   442 TIME:   0.008 TIME LEFT:  2.00D  GRAD.:     4.612 HEAT:  7698.589
 CYCLE:   443 TIME:   0.008 TIME LEFT:  2.00D  GRAD.:     4.319 HEAT:  7702.630
 CYCLE:   444 TIME:   0.008 TIME LEFT:  2.00D  GRAD.:     4.612 HEAT:  7698.589
 CYCLE:   445 TIME:   0.008 TIME LEFT:  2.00D  GRAD.:     4.319 HEAT:  7702.630
 CYCLE:   446 TIME:   0.008 TIME LEFT:  2.00D  GRAD.:     4.612 HEAT:  7698.589
 CYCLE:   447 TIME:   0.008 TIME LEFT:  2.00D  GRAD.:     4.319 HEAT:  7702.630
 CYCLE:   448 TIME:   0.016 TIME LEFT:  2.00D  GRAD.:     4.612 HEAT:  7698.589
 CYCLE:   449 TIME:   0.008 TIME LEFT:  2.00D  GRAD.:     4.319 HEAT:  7702.630
 CYCLE:   450 TIME:   0.008 TIME LEFT:  2.00D  GRAD.:     4.612 HEAT:  7698.589
 CYCLE:   451 TIME:   0.008 TIME LEFT:  2.00D  GRAD.:     4.319 HEAT:  7702.630
 CYCLE:   452 TIME:   0.008 TIME LEFT:  2.00D  GRAD.:     4.612 HEAT:  7698.589
 CYCLE:   453 TIME:   0.008 TIME LEFT:  2.00D  GRAD.:     4.319 HEAT:  7702.630
 CYCLE:   454 TIME:   0.016 TIME LEFT:  2.00D  GRAD.:     4.612 HEAT:  7698.589
 CYCLE:   455 TIME:   0.008 TIME LEFT:  2.00D  GRAD.:     4.319 HEAT:  7702.630
 CYCLE:   456 TIME:   0.008 TIME LEFT:  2.00D  GRAD.:     4.612 HEAT:  7698.589
 CYCLE:   457 TIME:   0.008 TIME LEFT:  2.00D  GRAD.:     4.319 HEAT:  7702.630
 CYCLE:   458 TIME:   0.008 TIME LEFT:  2.00D  GRAD.:     4.612 HEAT:  7698.589
 CYCLE:   459 TIME:   0.000 TIME LEFT:  2.00D  GRAD.:     4.319 HEAT:  7702.630
 CYCLE:   460 TIME:   0.016 TIME LEFT:  2.00D  GRAD.:     4.612 HEAT:  7698.589
 CYCLE:   461 TIME:   0.000 TIME LEFT:  2.00D  GRAD.:     4.319 HEAT:  7702.630
 CYCLE:   462 TIME:   0.008 TIME LEFT:  2.00D  GRAD.:     4.612 HEAT:  7698.589
 CYCLE:   463 TIME:   0.016 TIME LEFT:  2.00D  GRAD.:     4.319 HEAT:  7702.630
 CYCLE:   464 TIME:   0.008 TIME LEFT:  2.00D  GRAD.:     4.612 HEAT:  7698.589
 CYCLE:   465 TIME:   0.008 TIME LEFT:  2.00D  GRAD.:     4.319 HEAT:  7702.630
 CYCLE:   466 TIME:   0.008 TIME LEFT:  2.00D  GRAD.:     4.612 HEAT:  7698.589
 CYCLE:   467 TIME:   0.008 TIME LEFT:  2.00D  GRAD.:     4.319 HEAT:  7702.630
 CYCLE:   468 TIME:   0.008 TIME LEFT:  2.00D  GRAD.:     4.612 HEAT:  7698.589
 CYCLE:   469 TIME:   0.008 TIME LEFT:  2.00D  GRAD.:     4.319 HEAT:  7702.630
 CYCLE:   470 TIME:   0.016 TIME LEFT:  2.00D  GRAD.:     4.612 HEAT:  7698.589
 CYCLE:   471 TIME:   0.008 TIME LEFT:  2.00D  GRAD.:     4.319 HEAT:  7702.630
 CYCLE:   472 TIME:   0.008 TIME LEFT:  2.00D  GRAD.:     4.612 HEAT:  7698.589
 CYCLE:   473 TIME:   0.008 TIME LEFT:  2.00D  GRAD.:     4.319 HEAT:  7702.630
 CYCLE:   474 TIME:   0.008 TIME LEFT:  2.00D  GRAD.:     4.612 HEAT:  7698.589
 CYCLE:   475 TIME:   0.008 TIME LEFT:  2.00D  GRAD.:     4.319 HEAT:  7702.630
 CYCLE:   476 TIME:   0.016 TIME LEFT:  2.00D  GRAD.:     4.612 HEAT:  7698.589
 CYCLE:   477 TIME:   0.008 TIME LEFT:  2.00D  GRAD.:     4.319 HEAT:  7702.630
 CYCLE:   478 TIME:   0.008 TIME LEFT:  2.00D  GRAD.:     4.612 HEAT:  7698.589
 CYCLE:   479 TIME:   0.008 TIME LEFT:  2.00D  GRAD.:     4.319 HEAT:  7702.630
 CYCLE:   480 TIME:   0.008 TIME LEFT:  2.00D  GRAD.:     4.612 HEAT:  7698.589
 CYCLE:   481 TIME:   0.016 TIME LEFT:  2.00D  GRAD.:     4.319 HEAT:  7702.630
 CYCLE:   482 TIME:   0.008 TIME LEFT:  2.00D  GRAD.:     4.612 HEAT:  7698.589
 CYCLE:   483 TIME:   0.008 TIME LEFT:  2.00D  GRAD.:     4.319 HEAT:  7702.630
 CYCLE:   484 TIME:   0.008 TIME LEFT:  2.00D  GRAD.:     4.612 HEAT:  7698.589
 CYCLE:   485 TIME:   0.008 TIME LEFT:  2.00D  GRAD.:     4.319 HEAT:  7702.630
 CYCLE:   486 TIME:   0.008 TIME LEFT:  2.00D  GRAD.:     4.612 HEAT:  7698.589
 CYCLE:   487 TIME:   0.008 TIME LEFT:  2.00D  GRAD.:     4.319 HEAT:  7702.630
 CYCLE:   488 TIME:   0.008 TIME LEFT:  2.00D  GRAD.:     4.612 HEAT:  7698.589
 CYCLE:   489 TIME:   0.016 TIME LEFT:  2.00D  GRAD.:     4.319 HEAT:  7702.630
 CYCLE:   490 TIME:   0.008 TIME LEFT:  2.00D  GRAD.:     4.612 HEAT:  7698.589
 CYCLE:   491 TIME:   0.008 TIME LEFT:  2.00D  GRAD.:     4.319 HEAT:  7702.630
 CYCLE:   492 TIME:   0.008 TIME LEFT:  2.00D  GRAD.:     4.612 HEAT:  7698.589
 CYCLE:   493 TIME:   0.008 TIME LEFT:  2.00D  GRAD.:     4.319 HEAT:  7702.630
 CYCLE:   494 TIME:   0.008 TIME LEFT:  2.00D  GRAD.:     4.612 HEAT:  7698.589
 CYCLE:   495 TIME:   0.008 TIME LEFT:  2.00D  GRAD.:     4.319 HEAT:  7702.630
 CYCLE:   496 TIME:   0.008 TIME LEFT:  2.00D  GRAD.:     4.612 HEAT:  7698.589
 CYCLE:   497 TIME:   0.016 TIME LEFT:  2.00D  GRAD.:     4.319 HEAT:  7702.630
 CYCLE:   498 TIME:   0.008 TIME LEFT:  2.00D  GRAD.:     4.612 HEAT:  7698.589
 CYCLE:   499 TIME:   0.008 TIME LEFT:  2.00D  GRAD.:     4.319 HEAT:  7702.630
 CYCLE:   500 TIME:   0.008 TIME LEFT:  2.00D  GRAD.:     4.612 HEAT:  7698.589
 CYCLE:   501 TIME:   0.008 TIME LEFT:  2.00D  GRAD.:     4.319 HEAT:  7702.630
 CYCLE:   502 TIME:   0.008 TIME LEFT:  2.00D  GRAD.:     4.612 HEAT:  7698.589
 CYCLE:   503 TIME:   0.008 TIME LEFT:  2.00D  GRAD.:     4.319 HEAT:  7702.630
 CYCLE:   504 TIME:   0.008 TIME LEFT:  2.00D  GRAD.:     4.612 HEAT:  7698.589
 CYCLE:   505 TIME:   0.008 TIME LEFT:  2.00D  GRAD.:     4.319 HEAT:  7702.630
 CYCLE:   506 TIME:   0.008 TIME LEFT:  2.00D  GRAD.:     4.612 HEAT:  7698.589
 CYCLE:   507 TIME:   0.008 TIME LEFT:  2.00D  GRAD.:     4.319 HEAT:  7702.630
 CYCLE:   508 TIME:   0.008 TIME LEFT:  2.00D  GRAD.:     4.612 HEAT:  7698.589
 CYCLE:   509 TIME:   0.008 TIME LEFT:  2.00D  GRAD.:     4.319 HEAT:  7702.630
 CYCLE:   510 TIME:   0.008 TIME LEFT:  2.00D  GRAD.:     4.612 HEAT:  7698.589
 CYCLE:   511 TIME:   0.008 TIME LEFT:  2.00D  GRAD.:     4.319 HEAT:  7702.630
 CYCLE:   512 TIME:   0.008 TIME LEFT:  2.00D  GRAD.:     4.612 HEAT:  7698.589
 CYCLE:   513 TIME:   0.008 TIME LEFT:  2.00D  GRAD.:     4.319 HEAT:  7702.630
 CYCLE:   514 TIME:   0.008 TIME LEFT:  2.00D  GRAD.:     4.612 HEAT:  7698.589
 CYCLE:   515 TIME:   0.008 TIME LEFT:  2.00D  GRAD.:     4.319 HEAT:  7702.630
 CYCLE:   516 TIME:   0.008 TIME LEFT:  2.00D  GRAD.:     4.612 HEAT:  7698.589
 CYCLE:   517 TIME:   0.008 TIME LEFT:  2.00D  GRAD.:     4.319 HEAT:  7702.630
 CYCLE:   518 TIME:   0.016 TIME LEFT:  2.00D  GRAD.:     4.612 HEAT:  7698.589
 CYCLE:   519 TIME:   0.008 TIME LEFT:  2.00D  GRAD.:     4.319 HEAT:  7702.630
 CYCLE:   520 TIME:   0.008 TIME LEFT:  2.00D  GRAD.:     4.612 HEAT:  7698.589
 CYCLE:   521 TIME:   0.000 TIME LEFT:  2.00D  GRAD.:     4.319 HEAT:  7702.630
 CYCLE:   522 TIME:   0.008 TIME LEFT:  2.00D  GRAD.:     4.612 HEAT:  7698.589
 CYCLE:   523 TIME:   0.008 TIME LEFT:  2.00D  GRAD.:     4.319 HEAT:  7702.630
 CYCLE:   524 TIME:   0.008 TIME LEFT:  2.00D  GRAD.:     4.612 HEAT:  7698.589
 CYCLE:   525 TIME:   0.008 TIME LEFT:  2.00D  GRAD.:     4.319 HEAT:  7702.630
 CYCLE:   526 TIME:   0.008 TIME LEFT:  2.00D  GRAD.:     4.612 HEAT:  7698.589
 CYCLE:   527 TIME:   0.016 TIME LEFT:  2.00D  GRAD.:     4.319 HEAT:  7702.630
 CYCLE:   528 TIME:   0.008 TIME LEFT:  2.00D  GRAD.:     4.612 HEAT:  7698.589
 CYCLE:   529 TIME:   0.008 TIME LEFT:  2.00D  GRAD.:     4.319 HEAT:  7702.630
 CYCLE:   530 TIME:   0.008 TIME LEFT:  2.00D  GRAD.:     4.612 HEAT:  7698.589
 CYCLE:   531 TIME:   0.008 TIME LEFT:  2.00D  GRAD.:     4.319 HEAT:  7702.630
 CYCLE:   532 TIME:   0.008 TIME LEFT:  2.00D  GRAD.:     4.612 HEAT:  7698.589
 CYCLE:   533 TIME:   0.016 TIME LEFT:  2.00D  GRAD.:     4.319 HEAT:  7702.630
 CYCLE:   534 TIME:   0.008 TIME LEFT:  2.00D  GRAD.:     4.612 HEAT:  7698.589
 CYCLE:   535 TIME:   0.008 TIME LEFT:  2.00D  GRAD.:     4.319 HEAT:  7702.630
 CYCLE:   536 TIME:   0.008 TIME LEFT:  2.00D  GRAD.:     4.612 HEAT:  7698.589
 CYCLE:   537 TIME:   0.008 TIME LEFT:  2.00D  GRAD.:     4.319 HEAT:  7702.630
 CYCLE:   538 TIME:   0.008 TIME LEFT:  2.00D  GRAD.:     4.612 HEAT:  7698.589
 CYCLE:   539 TIME:   0.008 TIME LEFT:  2.00D  GRAD.:     4.319 HEAT:  7702.630
 CYCLE:   540 TIME:   0.016 TIME LEFT:  2.00D  GRAD.:     4.612 HEAT:  7698.589
 CYCLE:   541 TIME:   0.008 TIME LEFT:  2.00D  GRAD.:     4.319 HEAT:  7702.630
 CYCLE:   542 TIME:   0.008 TIME LEFT:  2.00D  GRAD.:     4.612 HEAT:  7698.589
 CYCLE:   543 TIME:   0.008 TIME LEFT:  2.00D  GRAD.:     4.319 HEAT:  7702.630
 CYCLE:   544 TIME:   0.008 TIME LEFT:  2.00D  GRAD.:     4.612 HEAT:  7698.589
 CYCLE:   545 TIME:   0.008 TIME LEFT:  2.00D  GRAD.:     4.319 HEAT:  7702.630
 CYCLE:   546 TIME:   0.008 TIME LEFT:  2.00D  GRAD.:     4.612 HEAT:  7698.589
 CYCLE:   547 TIME:   0.008 TIME LEFT:  2.00D  GRAD.:     4.319 HEAT:  7702.630
 CYCLE:   548 TIME:   0.016 TIME LEFT:  2.00D  GRAD.:     4.612 HEAT:  7698.589
 CYCLE:   549 TIME:   0.008 TIME LEFT:  2.00D  GRAD.:     4.319 HEAT:  7702.630
 CYCLE:   550 TIME:   0.008 TIME LEFT:  2.00D  GRAD.:     4.612 HEAT:  7698.589
 CYCLE:   551 TIME:   0.008 TIME LEFT:  2.00D  GRAD.:     4.319 HEAT:  7702.630
 CYCLE:   552 TIME:   0.008 TIME LEFT:  2.00D  GRAD.:     4.612 HEAT:  7698.589
 CYCLE:   553 TIME:   0.008 TIME LEFT:  2.00D  GRAD.:     4.319 HEAT:  7702.630
 CYCLE:   554 TIME:   0.008 TIME LEFT:  2.00D  GRAD.:     4.612 HEAT:  7698.589
 CYCLE:   555 TIME:   0.008 TIME LEFT:  2.00D  GRAD.:     4.319 HEAT:  7702.630
 CYCLE:   556 TIME:   0.008 TIME LEFT:  2.00D  GRAD.:     4.612 HEAT:  7698.589
 CYCLE:   557 TIME:   0.008 TIME LEFT:  2.00D  GRAD.:     4.319 HEAT:  7702.630
 CYCLE:   558 TIME:   0.008 TIME LEFT:  2.00D  GRAD.:     4.612 HEAT:  7698.589
 CYCLE:   559 TIME:   0.016 TIME LEFT:  2.00D  GRAD.:     4.319 HEAT:  7702.630
 CYCLE:   560 TIME:   0.008 TIME LEFT:  2.00D  GRAD.:     4.612 HEAT:  7698.589
 CYCLE:   561 TIME:   0.008 TIME LEFT:  2.00D  GRAD.:     4.319 HEAT:  7702.630
 CYCLE:   562 TIME:   0.008 TIME LEFT:  2.00D  GRAD.:     4.612 HEAT:  7698.589
 CYCLE:   563 TIME:   0.008 TIME LEFT:  2.00D  GRAD.:     4.319 HEAT:  7702.630
 CYCLE:   564 TIME:   0.008 TIME LEFT:  2.00D  GRAD.:     4.612 HEAT:  7698.589
 CYCLE:   565 TIME:   0.008 TIME LEFT:  2.00D  GRAD.:     4.319 HEAT:  7702.630
 CYCLE:   566 TIME:   0.008 TIME LEFT:  2.00D  GRAD.:     4.612 HEAT:  7698.589
 CYCLE:   567 TIME:   0.016 TIME LEFT:  2.00D  GRAD.:     4.319 HEAT:  7702.630
 CYCLE:   568 TIME:   0.008 TIME LEFT:  2.00D  GRAD.:     4.612 HEAT:  7698.589
 CYCLE:   569 TIME:   0.008 TIME LEFT:  2.00D  GRAD.:     4.319 HEAT:  7702.630
 CYCLE:   570 TIME:   0.008 TIME LEFT:  2.00D  GRAD.:     4.612 HEAT:  7698.589
 CYCLE:   571 TIME:   0.016 TIME LEFT:  2.00D  GRAD.:     4.319 HEAT:  7702.630
 CYCLE:   572 TIME:   0.016 TIME LEFT:  2.00D  GRAD.:     4.612 HEAT:  7698.589
 CYCLE:   573 TIME:   0.008 TIME LEFT:  2.00D  GRAD.:     4.319 HEAT:  7702.630
 CYCLE:   574 TIME:   0.008 TIME LEFT:  2.00D  GRAD.:     4.612 HEAT:  7698.589
 CYCLE:   575 TIME:   0.008 TIME LEFT:  2.00D  GRAD.:     4.319 HEAT:  7702.630
 CYCLE:   576 TIME:   0.016 TIME LEFT:  2.00D  GRAD.:     4.612 HEAT:  7698.589
 CYCLE:   577 TIME:   0.008 TIME LEFT:  2.00D  GRAD.:     4.319 HEAT:  7702.630
 CYCLE:   578 TIME:   0.008 TIME LEFT:  2.00D  GRAD.:     4.612 HEAT:  7698.589
 CYCLE:   579 TIME:   0.008 TIME LEFT:  2.00D  GRAD.:     4.319 HEAT:  7702.630
 CYCLE:   580 TIME:   0.008 TIME LEFT:  2.00D  GRAD.:     4.612 HEAT:  7698.589
 CYCLE:   581 TIME:   0.008 TIME LEFT:  2.00D  GRAD.:     4.319 HEAT:  7702.630
 CYCLE:   582 TIME:   0.008 TIME LEFT:  2.00D  GRAD.:     4.612 HEAT:  7698.589
 CYCLE:   583 TIME:   0.008 TIME LEFT:  2.00D  GRAD.:     4.319 HEAT:  7702.630
 CYCLE:   584 TIME:   0.008 TIME LEFT:  2.00D  GRAD.:     4.612 HEAT:  7698.589
 CYCLE:   585 TIME:   0.016 TIME LEFT:  2.00D  GRAD.:     4.319 HEAT:  7702.630
 CYCLE:   586 TIME:   0.008 TIME LEFT:  2.00D  GRAD.:     4.612 HEAT:  7698.589
 CYCLE:   587 TIME:   0.008 TIME LEFT:  2.00D  GRAD.:     4.319 HEAT:  7702.630
 CYCLE:   588 TIME:   0.008 TIME LEFT:  2.00D  GRAD.:     4.612 HEAT:  7698.589
 CYCLE:   589 TIME:   0.008 TIME LEFT:  2.00D  GRAD.:     4.319 HEAT:  7702.630
 CYCLE:   590 TIME:   0.008 TIME LEFT:  2.00D  GRAD.:     4.612 HEAT:  7698.589
 CYCLE:   591 TIME:   0.008 TIME LEFT:  2.00D  GRAD.:     4.319 HEAT:  7702.630
 CYCLE:   592 TIME:   0.008 TIME LEFT:  2.00D  GRAD.:     4.612 HEAT:  7698.589
 CYCLE:   593 TIME:   0.008 TIME LEFT:  2.00D  GRAD.:     4.319 HEAT:  7702.630
 CYCLE:   594 TIME:   0.008 TIME LEFT:  2.00D  GRAD.:     4.612 HEAT:  7698.589
 CYCLE:   595 TIME:   0.008 TIME LEFT:  2.00D  GRAD.:     4.319 HEAT:  7702.630
 CYCLE:   596 TIME:   0.008 TIME LEFT:  2.00D  GRAD.:     4.612 HEAT:  7698.589
 CYCLE:   597 TIME:   0.008 TIME LEFT:  2.00D  GRAD.:     4.319 HEAT:  7702.630
 CYCLE:   598 TIME:   0.008 TIME LEFT:  2.00D  GRAD.:     4.612 HEAT:  7698.589
 CYCLE:   599 TIME:   0.008 TIME LEFT:  2.00D  GRAD.:     4.319 HEAT:  7702.630
 CYCLE:   600 TIME:   0.008 TIME LEFT:  2.00D  GRAD.:     4.612 HEAT:  7698.589
 CYCLE:   601 TIME:   0.008 TIME LEFT:  2.00D  GRAD.:     4.319 HEAT:  7702.630
 CYCLE:   602 TIME:   0.008 TIME LEFT:  2.00D  GRAD.:     4.612 HEAT:  7698.589
 CYCLE:   603 TIME:   0.008 TIME LEFT:  2.00D  GRAD.:     4.319 HEAT:  7702.630
 CYCLE:   604 TIME:   0.008 TIME LEFT:  2.00D  GRAD.:     4.612 HEAT:  7698.589
 CYCLE:   605 TIME:   0.008 TIME LEFT:  2.00D  GRAD.:     4.319 HEAT:  7702.630
 CYCLE:   606 TIME:   0.008 TIME LEFT:  2.00D  GRAD.:     4.612 HEAT:  7698.589
 CYCLE:   607 TIME:   0.008 TIME LEFT:  2.00D  GRAD.:     4.319 HEAT:  7702.630
 CYCLE:   608 TIME:   0.008 TIME LEFT:  2.00D  GRAD.:     4.612 HEAT:  7698.589
 CYCLE:   609 TIME:   0.008 TIME LEFT:  2.00D  GRAD.:     4.319 HEAT:  7702.630
 CYCLE:   610 TIME:   0.008 TIME LEFT:  2.00D  GRAD.:     4.612 HEAT:  7698.589
 CYCLE:   611 TIME:   0.008 TIME LEFT:  2.00D  GRAD.:     4.319 HEAT:  7702.630
 CYCLE:   612 TIME:   0.008 TIME LEFT:  2.00D  GRAD.:     4.612 HEAT:  7698.589
 CYCLE:   613 TIME:   0.008 TIME LEFT:  2.00D  GRAD.:     4.319 HEAT:  7702.630
 CYCLE:   614 TIME:   0.016 TIME LEFT:  2.00D  GRAD.:     4.612 HEAT:  7698.589
 CYCLE:   615 TIME:   0.008 TIME LEFT:  2.00D  GRAD.:     4.319 HEAT:  7702.630
 CYCLE:   616 TIME:   0.008 TIME LEFT:  2.00D  GRAD.:     4.612 HEAT:  7698.589
 CYCLE:   617 TIME:   0.008 TIME LEFT:  2.00D  GRAD.:     4.319 HEAT:  7702.630
 CYCLE:   618 TIME:   0.008 TIME LEFT:  2.00D  GRAD.:     4.612 HEAT:  7698.589
 CYCLE:   619 TIME:   0.008 TIME LEFT:  2.00D  GRAD.:     4.319 HEAT:  7702.630
 CYCLE:   620 TIME:   0.008 TIME LEFT:  2.00D  GRAD.:     4.612 HEAT:  7698.589
 CYCLE:   621 TIME:   0.008 TIME LEFT:  2.00D  GRAD.:     4.319 HEAT:  7702.630
 CYCLE:   622 TIME:   0.008 TIME LEFT:  2.00D  GRAD.:     4.612 HEAT:  7698.589
 CYCLE:   623 TIME:   0.008 TIME LEFT:  2.00D  GRAD.:     4.319 HEAT:  7702.630
 CYCLE:   624 TIME:   0.008 TIME LEFT:  2.00D  GRAD.:     4.612 HEAT:  7698.589
 CYCLE:   625 TIME:   0.008 TIME LEFT:  2.00D  GRAD.:     4.319 HEAT:  7702.630
 CYCLE:   626 TIME:   0.008 TIME LEFT:  2.00D  GRAD.:     4.612 HEAT:  7698.589
 CYCLE:   627 TIME:   0.016 TIME LEFT:  2.00D  GRAD.:     4.319 HEAT:  7702.630
 CYCLE:   628 TIME:   0.008 TIME LEFT:  2.00D  GRAD.:     4.612 HEAT:  7698.589
 CYCLE:   629 TIME:   0.008 TIME LEFT:  2.00D  GRAD.:     4.319 HEAT:  7702.630
 CYCLE:   630 TIME:   0.008 TIME LEFT:  2.00D  GRAD.:     4.612 HEAT:  7698.589
 CYCLE:   631 TIME:   0.008 TIME LEFT:  2.00D  GRAD.:     4.319 HEAT:  7702.630
 CYCLE:   632 TIME:   0.008 TIME LEFT:  2.00D  GRAD.:     4.612 HEAT:  7698.589
 CYCLE:   633 TIME:   0.008 TIME LEFT:  2.00D  GRAD.:     4.319 HEAT:  7702.630
 CYCLE:   634 TIME:   0.008 TIME LEFT:  2.00D  GRAD.:     4.612 HEAT:  7698.589
 CYCLE:   635 TIME:   0.008 TIME LEFT:  2.00D  GRAD.:     4.319 HEAT:  7702.630
 CYCLE:   636 TIME:   0.008 TIME LEFT:  2.00D  GRAD.:     4.612 HEAT:  7698.589
 CYCLE:   637 TIME:   0.016 TIME LEFT:  2.00D  GRAD.:     4.319 HEAT:  7702.630
 CYCLE:   638 TIME:   0.008 TIME LEFT:  2.00D  GRAD.:     4.612 HEAT:  7698.589
 CYCLE:   639 TIME:   0.008 TIME LEFT:  2.00D  GRAD.:     4.319 HEAT:  7702.630
 CYCLE:   640 TIME:   0.008 TIME LEFT:  2.00D  GRAD.:     4.612 HEAT:  7698.589
 CYCLE:   641 TIME:   0.008 TIME LEFT:  2.00D  GRAD.:     4.319 HEAT:  7702.630
 CYCLE:   642 TIME:   0.008 TIME LEFT:  2.00D  GRAD.:     4.612 HEAT:  7698.589
 CYCLE:   643 TIME:   0.008 TIME LEFT:  2.00D  GRAD.:     4.319 HEAT:  7702.630
 CYCLE:   644 TIME:   0.008 TIME LEFT:  2.00D  GRAD.:     4.612 HEAT:  7698.589
 CYCLE:   645 TIME:   0.016 TIME LEFT:  2.00D  GRAD.:     4.319 HEAT:  7702.630
 CYCLE:   646 TIME:   0.000 TIME LEFT:  2.00D  GRAD.:     4.612 HEAT:  7698.589
 CYCLE:   647 TIME:   0.008 TIME LEFT:  2.00D  GRAD.:     4.319 HEAT:  7702.630
 CYCLE:   648 TIME:   0.008 TIME LEFT:  2.00D  GRAD.:     4.612 HEAT:  7698.589
 CYCLE:   649 TIME:   0.016 TIME LEFT:  2.00D  GRAD.:     4.319 HEAT:  7702.630
 CYCLE:   650 TIME:   0.008 TIME LEFT:  2.00D  GRAD.:     4.612 HEAT:  7698.589
 CYCLE:   651 TIME:   0.008 TIME LEFT:  2.00D  GRAD.:     4.319 HEAT:  7702.630
 CYCLE:   652 TIME:   0.008 TIME LEFT:  2.00D  GRAD.:     4.612 HEAT:  7698.589
 CYCLE:   653 TIME:   0.008 TIME LEFT:  2.00D  GRAD.:     4.319 HEAT:  7702.630
 CYCLE:   654 TIME:   0.008 TIME LEFT:  2.00D  GRAD.:     4.612 HEAT:  7698.589
 CYCLE:   655 TIME:   0.008 TIME LEFT:  2.00D  GRAD.:     4.319 HEAT:  7702.630
 CYCLE:   656 TIME:   0.008 TIME LEFT:  2.00D  GRAD.:     4.612 HEAT:  7698.589
 CYCLE:   657 TIME:   0.008 TIME LEFT:  2.00D  GRAD.:     4.319 HEAT:  7702.630
 CYCLE:   658 TIME:   0.008 TIME LEFT:  2.00D  GRAD.:     4.612 HEAT:  7698.589
 CYCLE:   659 TIME:   0.008 TIME LEFT:  2.00D  GRAD.:     4.319 HEAT:  7702.630
 CYCLE:   660 TIME:   0.008 TIME LEFT:  2.00D  GRAD.:     4.612 HEAT:  7698.589
 CYCLE:   661 TIME:   0.008 TIME LEFT:  2.00D  GRAD.:     4.319 HEAT:  7702.630
 CYCLE:   662 TIME:   0.008 TIME LEFT:  2.00D  GRAD.:     4.612 HEAT:  7698.589
 CYCLE:   663 TIME:   0.008 TIME LEFT:  2.00D  GRAD.:     4.319 HEAT:  7702.630
 CYCLE:   664 TIME:   0.016 TIME LEFT:  2.00D  GRAD.:     4.612 HEAT:  7698.589
 CYCLE:   665 TIME:   0.008 TIME LEFT:  2.00D  GRAD.:     4.319 HEAT:  7702.630
 CYCLE:   666 TIME:   0.008 TIME LEFT:  2.00D  GRAD.:     4.612 HEAT:  7698.589
 CYCLE:   667 TIME:   0.008 TIME LEFT:  2.00D  GRAD.:     4.319 HEAT:  7702.630
 CYCLE:   668 TIME:   0.008 TIME LEFT:  2.00D  GRAD.:     4.612 HEAT:  7698.589
 CYCLE:   669 TIME:   0.008 TIME LEFT:  2.00D  GRAD.:     4.319 HEAT:  7702.630
 CYCLE:   670 TIME:   0.008 TIME LEFT:  2.00D  GRAD.:     4.612 HEAT:  7698.589
 CYCLE:   671 TIME:   0.016 TIME LEFT:  2.00D  GRAD.:     4.319 HEAT:  7702.630
 CYCLE:   672 TIME:   0.008 TIME LEFT:  2.00D  GRAD.:     4.612 HEAT:  7698.589
 CYCLE:   673 TIME:   0.008 TIME LEFT:  2.00D  GRAD.:     4.319 HEAT:  7702.630
 CYCLE:   674 TIME:   0.008 TIME LEFT:  2.00D  GRAD.:     4.612 HEAT:  7698.589
 CYCLE:   675 TIME:   0.008 TIME LEFT:  2.00D  GRAD.:     4.319 HEAT:  7702.630
 CYCLE:   676 TIME:   0.008 TIME LEFT:  2.00D  GRAD.:     4.612 HEAT:  7698.589
 CYCLE:   677 TIME:   0.008 TIME LEFT:  2.00D  GRAD.:     4.319 HEAT:  7702.630
 CYCLE:   678 TIME:   0.016 TIME LEFT:  2.00D  GRAD.:     4.612 HEAT:  7698.589
 CYCLE:   679 TIME:   0.008 TIME LEFT:  2.00D  GRAD.:     4.319 HEAT:  7702.630
 CYCLE:   680 TIME:   0.008 TIME LEFT:  2.00D  GRAD.:     4.612 HEAT:  7698.589
 CYCLE:   681 TIME:   0.008 TIME LEFT:  2.00D  GRAD.:     4.319 HEAT:  7702.630
 CYCLE:   682 TIME:   0.008 TIME LEFT:  2.00D  GRAD.:     4.612 HEAT:  7698.589
 CYCLE:   683 TIME:   0.008 TIME LEFT:  2.00D  GRAD.:     4.319 HEAT:  7702.630
 CYCLE:   684 TIME:   0.008 TIME LEFT:  2.00D  GRAD.:     4.612 HEAT:  7698.589
 CYCLE:   685 TIME:   0.008 TIME LEFT:  2.00D  GRAD.:     4.319 HEAT:  7702.630
 CYCLE:   686 TIME:   0.008 TIME LEFT:  2.00D  GRAD.:     4.612 HEAT:  7698.589
 CYCLE:   687 TIME:   0.008 TIME LEFT:  2.00D  GRAD.:     4.319 HEAT:  7702.630
 CYCLE:   688 TIME:   0.008 TIME LEFT:  2.00D  GRAD.:     4.612 HEAT:  7698.589
 CYCLE:   689 TIME:   0.008 TIME LEFT:  2.00D  GRAD.:     4.319 HEAT:  7702.630
 CYCLE:   690 TIME:   0.000 TIME LEFT:  2.00D  GRAD.:     4.612 HEAT:  7698.589
 CYCLE:   691 TIME:   0.008 TIME LEFT:  2.00D  GRAD.:     4.319 HEAT:  7702.630
 CYCLE:   692 TIME:   0.016 TIME LEFT:  2.00D  GRAD.:     4.612 HEAT:  7698.589
 CYCLE:   693 TIME:   0.008 TIME LEFT:  2.00D  GRAD.:     4.319 HEAT:  7702.630
 CYCLE:   694 TIME:   0.008 TIME LEFT:  2.00D  GRAD.:     4.612 HEAT:  7698.589
 CYCLE:   695 TIME:   0.008 TIME LEFT:  2.00D  GRAD.:     4.319 HEAT:  7702.630
 CYCLE:   696 TIME:   0.008 TIME LEFT:  2.00D  GRAD.:     4.612 HEAT:  7698.589
 CYCLE:   697 TIME:   0.000 TIME LEFT:  2.00D  GRAD.:     4.319 HEAT:  7702.630
 CYCLE:   698 TIME:   0.008 TIME LEFT:  2.00D  GRAD.:     4.612 HEAT:  7698.589
 CYCLE:   699 TIME:   0.016 TIME LEFT:  2.00D  GRAD.:     4.319 HEAT:  7702.630
 CYCLE:   700 TIME:   0.008 TIME LEFT:  2.00D  GRAD.:     4.612 HEAT:  7698.589
 CYCLE:   701 TIME:   0.008 TIME LEFT:  2.00D  GRAD.:     4.319 HEAT:  7702.630
 CYCLE:   702 TIME:   0.008 TIME LEFT:  2.00D  GRAD.:     4.612 HEAT:  7698.589
 CYCLE:   703 TIME:   0.008 TIME LEFT:  2.00D  GRAD.:     4.319 HEAT:  7702.630
 CYCLE:   704 TIME:   0.000 TIME LEFT:  2.00D  GRAD.:     4.612 HEAT:  7698.589
 CYCLE:   705 TIME:   0.016 TIME LEFT:  2.00D  GRAD.:     4.319 HEAT:  7702.630
 CYCLE:   706 TIME:   0.000 TIME LEFT:  2.00D  GRAD.:     4.612 HEAT:  7698.589
 CYCLE:   707 TIME:   0.008 TIME LEFT:  2.00D  GRAD.:     4.319 HEAT:  7702.630
 CYCLE:   708 TIME:   0.016 TIME LEFT:  2.00D  GRAD.:     4.612 HEAT:  7698.589
 CYCLE:   709 TIME:   0.008 TIME LEFT:  2.00D  GRAD.:     4.319 HEAT:  7702.630
 CYCLE:   710 TIME:   0.008 TIME LEFT:  2.00D  GRAD.:     4.612 HEAT:  7698.589
 CYCLE:   711 TIME:   0.008 TIME LEFT:  2.00D  GRAD.:     4.319 HEAT:  7702.630
 CYCLE:   712 TIME:   0.008 TIME LEFT:  2.00D  GRAD.:     4.612 HEAT:  7698.589
 CYCLE:   713 TIME:   0.008 TIME LEFT:  2.00D  GRAD.:     4.319 HEAT:  7702.630
 CYCLE:   714 TIME:   0.008 TIME LEFT:  2.00D  GRAD.:     4.612 HEAT:  7698.589
 CYCLE:   715 TIME:   0.008 TIME LEFT:  2.00D  GRAD.:     4.319 HEAT:  7702.630
 CYCLE:   716 TIME:   0.008 TIME LEFT:  2.00D  GRAD.:     4.612 HEAT:  7698.589
 CYCLE:   717 TIME:   0.008 TIME LEFT:  2.00D  GRAD.:     4.319 HEAT:  7702.630
 CYCLE:   718 TIME:   0.008 TIME LEFT:  2.00D  GRAD.:     4.612 HEAT:  7698.589
 CYCLE:   719 TIME:   0.008 TIME LEFT:  2.00D  GRAD.:     4.319 HEAT:  7702.630
 CYCLE:   720 TIME:   0.016 TIME LEFT:  2.00D  GRAD.:     4.612 HEAT:  7698.589
 CYCLE:   721 TIME:   0.008 TIME LEFT:  2.00D  GRAD.:     4.319 HEAT:  7702.630
 CYCLE:   722 TIME:   0.008 TIME LEFT:  2.00D  GRAD.:     4.612 HEAT:  7698.589
 CYCLE:   723 TIME:   0.008 TIME LEFT:  2.00D  GRAD.:     4.319 HEAT:  7702.630
 CYCLE:   724 TIME:   0.016 TIME LEFT:  2.00D  GRAD.:     4.612 HEAT:  7698.589
 CYCLE:   725 TIME:   0.000 TIME LEFT:  2.00D  GRAD.:     4.319 HEAT:  7702.630
 CYCLE:   726 TIME:   0.016 TIME LEFT:  2.00D  GRAD.:     4.612 HEAT:  7698.589
 CYCLE:   727 TIME:   0.008 TIME LEFT:  2.00D  GRAD.:     4.319 HEAT:  7702.630
 CYCLE:   728 TIME:   0.008 TIME LEFT:  2.00D  GRAD.:     4.612 HEAT:  7698.589
 CYCLE:   729 TIME:   0.008 TIME LEFT:  2.00D  GRAD.:     4.319 HEAT:  7702.630
 CYCLE:   730 TIME:   0.008 TIME LEFT:  2.00D  GRAD.:     4.612 HEAT:  7698.589
 CYCLE:   731 TIME:   0.008 TIME LEFT:  2.00D  GRAD.:     4.319 HEAT:  7702.630
 CYCLE:   732 TIME:   0.008 TIME LEFT:  2.00D  GRAD.:     4.612 HEAT:  7698.589
 CYCLE:   733 TIME:   0.008 TIME LEFT:  2.00D  GRAD.:     4.319 HEAT:  7702.630
 CYCLE:   734 TIME:   0.008 TIME LEFT:  2.00D  GRAD.:     4.612 HEAT:  7698.589
 CYCLE:   735 TIME:   0.008 TIME LEFT:  2.00D  GRAD.:     4.319 HEAT:  7702.630
 CYCLE:   736 TIME:   0.008 TIME LEFT:  2.00D  GRAD.:     4.612 HEAT:  7698.589
 CYCLE:   737 TIME:   0.008 TIME LEFT:  2.00D  GRAD.:     4.319 HEAT:  7702.630
 CYCLE:   738 TIME:   0.016 TIME LEFT:  2.00D  GRAD.:     4.612 HEAT:  7698.589
 CYCLE:   739 TIME:   0.008 TIME LEFT:  2.00D  GRAD.:     4.319 HEAT:  7702.630
 CYCLE:   740 TIME:   0.008 TIME LEFT:  2.00D  GRAD.:     4.612 HEAT:  7698.589
 CYCLE:   741 TIME:   0.008 TIME LEFT:  2.00D  GRAD.:     4.319 HEAT:  7702.630
 CYCLE:   742 TIME:   0.008 TIME LEFT:  2.00D  GRAD.:     4.612 HEAT:  7698.589
 CYCLE:   743 TIME:   0.016 TIME LEFT:  2.00D  GRAD.:     4.319 HEAT:  7702.630
 CYCLE:   744 TIME:   0.008 TIME LEFT:  2.00D  GRAD.:     4.612 HEAT:  7698.589
 CYCLE:   745 TIME:   0.008 TIME LEFT:  2.00D  GRAD.:     4.319 HEAT:  7702.630
 CYCLE:   746 TIME:   0.008 TIME LEFT:  2.00D  GRAD.:     4.612 HEAT:  7698.589
 CYCLE:   747 TIME:   0.008 TIME LEFT:  2.00D  GRAD.:     4.319 HEAT:  7702.630
 CYCLE:   748 TIME:   0.008 TIME LEFT:  2.00D  GRAD.:     4.612 HEAT:  7698.589
 CYCLE:   749 TIME:   0.008 TIME LEFT:  2.00D  GRAD.:     4.319 HEAT:  7702.630
 CYCLE:   750 TIME:   0.008 TIME LEFT:  2.00D  GRAD.:     4.612 HEAT:  7698.589
 CYCLE:   751 TIME:   0.008 TIME LEFT:  2.00D  GRAD.:     4.319 HEAT:  7702.630
 CYCLE:   752 TIME:   0.016 TIME LEFT:  2.00D  GRAD.:     4.612 HEAT:  7698.589
 CYCLE:   753 TIME:   0.008 TIME LEFT:  2.00D  GRAD.:     4.319 HEAT:  7702.630
 CYCLE:   754 TIME:   0.008 TIME LEFT:  2.00D  GRAD.:     4.612 HEAT:  7698.589
 CYCLE:   755 TIME:   0.008 TIME LEFT:  2.00D  GRAD.:     4.319 HEAT:  7702.630
 CYCLE:   756 TIME:   0.008 TIME LEFT:  2.00D  GRAD.:     4.612 HEAT:  7698.589
 CYCLE:   757 TIME:   0.008 TIME LEFT:  2.00D  GRAD.:     4.319 HEAT:  7702.630
 CYCLE:   758 TIME:   0.008 TIME LEFT:  2.00D  GRAD.:     4.612 HEAT:  7698.589
 CYCLE:   759 TIME:   0.008 TIME LEFT:  2.00D  GRAD.:     4.319 HEAT:  7702.630
 CYCLE:   760 TIME:   0.008 TIME LEFT:  2.00D  GRAD.:     4.612 HEAT:  7698.589
 CYCLE:   761 TIME:   0.008 TIME LEFT:  2.00D  GRAD.:     4.319 HEAT:  7702.630
 CYCLE:   762 TIME:   0.008 TIME LEFT:  2.00D  GRAD.:     4.612 HEAT:  7698.589
 CYCLE:   763 TIME:   0.016 TIME LEFT:  2.00D  GRAD.:     4.319 HEAT:  7702.630
 CYCLE:   764 TIME:   0.008 TIME LEFT:  2.00D  GRAD.:     4.612 HEAT:  7698.589
 CYCLE:   765 TIME:   0.008 TIME LEFT:  2.00D  GRAD.:     4.319 HEAT:  7702.630
 CYCLE:   766 TIME:   0.008 TIME LEFT:  2.00D  GRAD.:     4.612 HEAT:  7698.589
 CYCLE:   767 TIME:   0.008 TIME LEFT:  2.00D  GRAD.:     4.319 HEAT:  7702.630
 CYCLE:   768 TIME:   0.008 TIME LEFT:  2.00D  GRAD.:     4.612 HEAT:  7698.589
 CYCLE:   769 TIME:   0.008 TIME LEFT:  2.00D  GRAD.:     4.319 HEAT:  7702.630
 CYCLE:   770 TIME:   0.008 TIME LEFT:  2.00D  GRAD.:     4.612 HEAT:  7698.589
 CYCLE:   771 TIME:   0.008 TIME LEFT:  2.00D  GRAD.:     4.319 HEAT:  7702.630
 CYCLE:   772 TIME:   0.008 TIME LEFT:  2.00D  GRAD.:     4.612 HEAT:  7698.589
 CYCLE:   773 TIME:   0.008 TIME LEFT:  2.00D  GRAD.:     4.319 HEAT:  7702.630
 CYCLE:   774 TIME:   0.008 TIME LEFT:  2.00D  GRAD.:     4.612 HEAT:  7698.589
 CYCLE:   775 TIME:   0.016 TIME LEFT:  2.00D  GRAD.:     4.319 HEAT:  7702.630
 CYCLE:   776 TIME:   0.000 TIME LEFT:  2.00D  GRAD.:     4.612 HEAT:  7698.589
 CYCLE:   777 TIME:   0.008 TIME LEFT:  2.00D  GRAD.:     4.319 HEAT:  7702.630
 CYCLE:   778 TIME:   0.016 TIME LEFT:  2.00D  GRAD.:     4.612 HEAT:  7698.589
 CYCLE:   779 TIME:   0.008 TIME LEFT:  2.00D  GRAD.:     4.319 HEAT:  7702.630
 CYCLE:   780 TIME:   0.008 TIME LEFT:  2.00D  GRAD.:     4.612 HEAT:  7698.589
 CYCLE:   781 TIME:   0.008 TIME LEFT:  2.00D  GRAD.:     4.319 HEAT:  7702.630
 CYCLE:   782 TIME:   0.008 TIME LEFT:  2.00D  GRAD.:     4.612 HEAT:  7698.589
 CYCLE:   783 TIME:   0.008 TIME LEFT:  2.00D  GRAD.:     4.319 HEAT:  7702.630
 CYCLE:   784 TIME:   0.008 TIME LEFT:  2.00D  GRAD.:     4.612 HEAT:  7698.589
 CYCLE:   785 TIME:   0.008 TIME LEFT:  2.00D  GRAD.:     4.319 HEAT:  7702.630
 CYCLE:   786 TIME:   0.008 TIME LEFT:  2.00D  GRAD.:     4.612 HEAT:  7698.589
 CYCLE:   787 TIME:   0.000 TIME LEFT:  2.00D  GRAD.:     4.319 HEAT:  7702.630
 CYCLE:   788 TIME:   0.016 TIME LEFT:  2.00D  GRAD.:     4.612 HEAT:  7698.589
 CYCLE:   789 TIME:   0.008 TIME LEFT:  2.00D  GRAD.:     4.319 HEAT:  7702.630
 CYCLE:   790 TIME:   0.008 TIME LEFT:  2.00D  GRAD.:     4.612 HEAT:  7698.589
 CYCLE:   791 TIME:   0.008 TIME LEFT:  2.00D  GRAD.:     4.319 HEAT:  7702.630
 CYCLE:   792 TIME:   0.016 TIME LEFT:  2.00D  GRAD.:     4.612 HEAT:  7698.589
 CYCLE:   793 TIME:   0.008 TIME LEFT:  2.00D  GRAD.:     4.319 HEAT:  7702.630
 CYCLE:   794 TIME:   0.008 TIME LEFT:  2.00D  GRAD.:     4.612 HEAT:  7698.589
 CYCLE:   795 TIME:   0.008 TIME LEFT:  2.00D  GRAD.:     4.319 HEAT:  7702.630
 CYCLE:   796 TIME:   0.008 TIME LEFT:  2.00D  GRAD.:     4.612 HEAT:  7698.589
 CYCLE:   797 TIME:   0.016 TIME LEFT:  2.00D  GRAD.:     4.319 HEAT:  7702.630
 CYCLE:   798 TIME:   0.008 TIME LEFT:  2.00D  GRAD.:     4.612 HEAT:  7698.589
 CYCLE:   799 TIME:   0.008 TIME LEFT:  2.00D  GRAD.:     4.319 HEAT:  7702.630
 CYCLE:   800 TIME:   0.008 TIME LEFT:  2.00D  GRAD.:     4.612 HEAT:  7698.589
 CYCLE:   801 TIME:   0.008 TIME LEFT:  2.00D  GRAD.:     4.319 HEAT:  7702.630
 CYCLE:   802 TIME:   0.008 TIME LEFT:  2.00D  GRAD.:     4.612 HEAT:  7698.589
 CYCLE:   803 TIME:   0.008 TIME LEFT:  2.00D  GRAD.:     4.319 HEAT:  7702.630
 CYCLE:   804 TIME:   0.016 TIME LEFT:  2.00D  GRAD.:     4.612 HEAT:  7698.589
 CYCLE:   805 TIME:   0.008 TIME LEFT:  2.00D  GRAD.:     4.319 HEAT:  7702.630
 CYCLE:   806 TIME:   0.008 TIME LEFT:  2.00D  GRAD.:     4.612 HEAT:  7698.589
 CYCLE:   807 TIME:   0.008 TIME LEFT:  2.00D  GRAD.:     4.319 HEAT:  7702.630
 CYCLE:   808 TIME:   0.008 TIME LEFT:  2.00D  GRAD.:     4.612 HEAT:  7698.589
 CYCLE:   809 TIME:   0.008 TIME LEFT:  2.00D  GRAD.:     4.319 HEAT:  7702.630
 CYCLE:   810 TIME:   0.008 TIME LEFT:  2.00D  GRAD.:     4.612 HEAT:  7698.589
 CYCLE:   811 TIME:   0.008 TIME LEFT:  2.00D  GRAD.:     4.319 HEAT:  7702.630
 CYCLE:   812 TIME:   0.008 TIME LEFT:  2.00D  GRAD.:     4.612 HEAT:  7698.589
 CYCLE:   813 TIME:   0.000 TIME LEFT:  2.00D  GRAD.:     4.319 HEAT:  7702.630
 CYCLE:   814 TIME:   0.008 TIME LEFT:  2.00D  GRAD.:     4.612 HEAT:  7698.589
 CYCLE:   815 TIME:   0.008 TIME LEFT:  2.00D  GRAD.:     4.319 HEAT:  7702.630
 CYCLE:   816 TIME:   0.008 TIME LEFT:  2.00D  GRAD.:     4.612 HEAT:  7698.589
 CYCLE:   817 TIME:   0.008 TIME LEFT:  2.00D  GRAD.:     4.319 HEAT:  7702.630
 CYCLE:   818 TIME:   0.008 TIME LEFT:  2.00D  GRAD.:     4.612 HEAT:  7698.589
 CYCLE:   819 TIME:   0.008 TIME LEFT:  2.00D  GRAD.:     4.319 HEAT:  7702.630
 CYCLE:   820 TIME:   0.016 TIME LEFT:  2.00D  GRAD.:     4.612 HEAT:  7698.589
 CYCLE:   821 TIME:   0.008 TIME LEFT:  2.00D  GRAD.:     4.319 HEAT:  7702.630
 CYCLE:   822 TIME:   0.016 TIME LEFT:  2.00D  GRAD.:     4.612 HEAT:  7698.589
 CYCLE:   823 TIME:   0.008 TIME LEFT:  2.00D  GRAD.:     4.319 HEAT:  7702.630
 CYCLE:   824 TIME:   0.008 TIME LEFT:  2.00D  GRAD.:     4.612 HEAT:  7698.589
 CYCLE:   825 TIME:   0.008 TIME LEFT:  2.00D  GRAD.:     4.319 HEAT:  7702.630
 CYCLE:   826 TIME:   0.008 TIME LEFT:  2.00D  GRAD.:     4.612 HEAT:  7698.589
 CYCLE:   827 TIME:   0.008 TIME LEFT:  2.00D  GRAD.:     4.319 HEAT:  7702.630
 CYCLE:   828 TIME:   0.008 TIME LEFT:  2.00D  GRAD.:     4.612 HEAT:  7698.589
 CYCLE:   829 TIME:   0.008 TIME LEFT:  2.00D  GRAD.:     4.319 HEAT:  7702.630
 CYCLE:   830 TIME:   0.008 TIME LEFT:  2.00D  GRAD.:     4.612 HEAT:  7698.589
 CYCLE:   831 TIME:   0.008 TIME LEFT:  2.00D  GRAD.:     4.319 HEAT:  7702.630
 CYCLE:   832 TIME:   0.008 TIME LEFT:  2.00D  GRAD.:     4.612 HEAT:  7698.589
 CYCLE:   833 TIME:   0.008 TIME LEFT:  2.00D  GRAD.:     4.319 HEAT:  7702.630
 CYCLE:   834 TIME:   0.008 TIME LEFT:  2.00D  GRAD.:     4.612 HEAT:  7698.589
 CYCLE:   835 TIME:   0.008 TIME LEFT:  2.00D  GRAD.:     4.319 HEAT:  7702.630
 CYCLE:   836 TIME:   0.008 TIME LEFT:  2.00D  GRAD.:     4.612 HEAT:  7698.589
 CYCLE:   837 TIME:   0.016 TIME LEFT:  2.00D  GRAD.:     4.319 HEAT:  7702.630
 CYCLE:   838 TIME:   0.008 TIME LEFT:  2.00D  GRAD.:     4.612 HEAT:  7698.589
 CYCLE:   839 TIME:   0.008 TIME LEFT:  2.00D  GRAD.:     4.319 HEAT:  7702.630
 CYCLE:   840 TIME:   0.008 TIME LEFT:  2.00D  GRAD.:     4.612 HEAT:  7698.589
 CYCLE:   841 TIME:   0.008 TIME LEFT:  2.00D  GRAD.:     4.319 HEAT:  7702.630
 CYCLE:   842 TIME:   0.008 TIME LEFT:  2.00D  GRAD.:     4.612 HEAT:  7698.589
 CYCLE:   843 TIME:   0.008 TIME LEFT:  2.00D  GRAD.:     4.319 HEAT:  7702.630
 CYCLE:   844 TIME:   0.008 TIME LEFT:  2.00D  GRAD.:     4.612 HEAT:  7698.589
 CYCLE:   845 TIME:   0.008 TIME LEFT:  2.00D  GRAD.:     4.319 HEAT:  7702.630
 CYCLE:   846 TIME:   0.008 TIME LEFT:  2.00D  GRAD.:     4.612 HEAT:  7698.589
 CYCLE:   847 TIME:   0.008 TIME LEFT:  2.00D  GRAD.:     4.319 HEAT:  7702.630
 CYCLE:   848 TIME:   0.016 TIME LEFT:  2.00D  GRAD.:     4.612 HEAT:  7698.589
 CYCLE:   849 TIME:   0.008 TIME LEFT:  2.00D  GRAD.:     4.319 HEAT:  7702.630
 CYCLE:   850 TIME:   0.016 TIME LEFT:  2.00D  GRAD.:     4.612 HEAT:  7698.589
 CYCLE:   851 TIME:   0.008 TIME LEFT:  2.00D  GRAD.:     4.319 HEAT:  7702.630
 CYCLE:   852 TIME:   0.008 TIME LEFT:  2.00D  GRAD.:     4.612 HEAT:  7698.589
 CYCLE:   853 TIME:   0.016 TIME LEFT:  2.00D  GRAD.:     4.319 HEAT:  7702.630
 CYCLE:   854 TIME:   0.016 TIME LEFT:  2.00D  GRAD.:     4.612 HEAT:  7698.589
 CYCLE:   855 TIME:   0.008 TIME LEFT:  2.00D  GRAD.:     4.319 HEAT:  7702.630
 CYCLE:   856 TIME:   0.008 TIME LEFT:  2.00D  GRAD.:     4.612 HEAT:  7698.589
 CYCLE:   857 TIME:   0.008 TIME LEFT:  2.00D  GRAD.:     4.319 HEAT:  7702.630
 CYCLE:   858 TIME:   0.016 TIME LEFT:  2.00D  GRAD.:     4.612 HEAT:  7698.589
 CYCLE:   859 TIME:   0.008 TIME LEFT:  2.00D  GRAD.:     4.319 HEAT:  7702.630
 CYCLE:   860 TIME:   0.008 TIME LEFT:  2.00D  GRAD.:     4.612 HEAT:  7698.589
 CYCLE:   861 TIME:   0.016 TIME LEFT:  2.00D  GRAD.:     4.319 HEAT:  7702.630
 CYCLE:   862 TIME:   0.008 TIME LEFT:  2.00D  GRAD.:     4.612 HEAT:  7698.589
 CYCLE:   863 TIME:   0.008 TIME LEFT:  2.00D  GRAD.:     4.319 HEAT:  7702.630
 CYCLE:   864 TIME:   0.008 TIME LEFT:  2.00D  GRAD.:     4.612 HEAT:  7698.589
 CYCLE:   865 TIME:   0.008 TIME LEFT:  2.00D  GRAD.:     4.319 HEAT:  7702.630
 CYCLE:   866 TIME:   0.008 TIME LEFT:  2.00D  GRAD.:     4.612 HEAT:  7698.589
 CYCLE:   867 TIME:   0.008 TIME LEFT:  2.00D  GRAD.:     4.319 HEAT:  7702.630
 CYCLE:   868 TIME:   0.008 TIME LEFT:  2.00D  GRAD.:     4.612 HEAT:  7698.589
 CYCLE:   869 TIME:   0.008 TIME LEFT:  2.00D  GRAD.:     4.319 HEAT:  7702.630
 CYCLE:   870 TIME:   0.008 TIME LEFT:  2.00D  GRAD.:     4.612 HEAT:  7698.589
 CYCLE:   871 TIME:   0.008 TIME LEFT:  2.00D  GRAD.:     4.319 HEAT:  7702.630
 CYCLE:   872 TIME:   0.016 TIME LEFT:  2.00D  GRAD.:     4.612 HEAT:  7698.589
 CYCLE:   873 TIME:   0.008 TIME LEFT:  2.00D  GRAD.:     4.319 HEAT:  7702.630
 CYCLE:   874 TIME:   0.008 TIME LEFT:  2.00D  GRAD.:     4.612 HEAT:  7698.589
 CYCLE:   875 TIME:   0.016 TIME LEFT:  2.00D  GRAD.:     4.319 HEAT:  7702.630
 CYCLE:   876 TIME:   0.008 TIME LEFT:  2.00D  GRAD.:     4.612 HEAT:  7698.589
 CYCLE:   877 TIME:   0.008 TIME LEFT:  2.00D  GRAD.:     4.319 HEAT:  7702.630
 CYCLE:   878 TIME:   0.008 TIME LEFT:  2.00D  GRAD.:     4.612 HEAT:  7698.589
 CYCLE:   879 TIME:   0.016 TIME LEFT:  2.00D  GRAD.:     4.319 HEAT:  7702.630
 CYCLE:   880 TIME:   0.008 TIME LEFT:  2.00D  GRAD.:     4.612 HEAT:  7698.589
 CYCLE:   881 TIME:   0.016 TIME LEFT:  2.00D  GRAD.:     4.319 HEAT:  7702.630
 CYCLE:   882 TIME:   0.008 TIME LEFT:  2.00D  GRAD.:     4.612 HEAT:  7698.589
 CYCLE:   883 TIME:   0.008 TIME LEFT:  2.00D  GRAD.:     4.319 HEAT:  7702.630
 CYCLE:   884 TIME:   0.000 TIME LEFT:  2.00D  GRAD.:     4.612 HEAT:  7698.589
 CYCLE:   885 TIME:   0.016 TIME LEFT:  2.00D  GRAD.:     4.319 HEAT:  7702.630
 CYCLE:   886 TIME:   0.008 TIME LEFT:  2.00D  GRAD.:     4.612 HEAT:  7698.589
 CYCLE:   887 TIME:   0.008 TIME LEFT:  2.00D  GRAD.:     4.319 HEAT:  7702.630
 CYCLE:   888 TIME:   0.008 TIME LEFT:  2.00D  GRAD.:     4.612 HEAT:  7698.589
 CYCLE:   889 TIME:   0.008 TIME LEFT:  2.00D  GRAD.:     4.319 HEAT:  7702.630
 CYCLE:   890 TIME:   0.008 TIME LEFT:  2.00D  GRAD.:     4.612 HEAT:  7698.589
 CYCLE:   891 TIME:   0.008 TIME LEFT:  2.00D  GRAD.:     4.319 HEAT:  7702.630
 CYCLE:   892 TIME:   0.008 TIME LEFT:  2.00D  GRAD.:     4.612 HEAT:  7698.589
 CYCLE:   893 TIME:   0.008 TIME LEFT:  2.00D  GRAD.:     4.319 HEAT:  7702.630
 CYCLE:   894 TIME:   0.008 TIME LEFT:  2.00D  GRAD.:     4.612 HEAT:  7698.589
[...]
     66         22  O    CARTESIAN Z    -2.296478      0.000834  KCAL/ANGSTROM
     67         23  C    CARTESIAN X   -65.024488      0.006989  KCAL/ANGSTROM
     68         23  C    CARTESIAN Y    15.615791     -0.005329  KCAL/ANGSTROM
     69         23  C    CARTESIAN Z    -7.369029     -0.003563  KCAL/ANGSTROM
     70         24  H    CARTESIAN X   -12.359792     -2.633849  KCAL/ANGSTROM
     71         24  H    CARTESIAN Y   -19.920673     -4.183596  KCAL/ANGSTROM
     72         24  H    CARTESIAN Z     1.735803      4.017983  KCAL/ANGSTROM
     73         25  H    CARTESIAN X    13.433660    -19.108205  KCAL/ANGSTROM
     74         25  H    CARTESIAN Y   -17.786352    -33.032878  KCAL/ANGSTROM
     75         25  H    CARTESIAN Z    11.732072     10.839866  KCAL/ANGSTROM
     76         26  H    CARTESIAN X    13.815262     19.105946  KCAL/ANGSTROM
     77         26  H    CARTESIAN Y   -17.126992     33.026315  KCAL/ANGSTROM
     78         26  H    CARTESIAN Z    11.515392    -10.835297  KCAL/ANGSTROM
     79         27  H    CARTESIAN X     9.425173     45.883469  KCAL/ANGSTROM
     80         27  H    CARTESIAN Y    14.768674    -18.911403  KCAL/ANGSTROM
     81         27  H    CARTESIAN Z    22.012769     42.439061  KCAL/ANGSTROM
     82         28  H    CARTESIAN X     9.928248    -45.887440  KCAL/ANGSTROM
     83         28  H    CARTESIAN Y    14.561591     18.915450  KCAL/ANGSTROM
     84         28  H    CARTESIAN Z    22.478003    -42.434516  KCAL/ANGSTROM
     85         29  H    CARTESIAN X    32.277057     -0.099830  KCAL/ANGSTROM
     86         29  H    CARTESIAN Y    15.950770      1.143933  KCAL/ANGSTROM
     87         29  H    CARTESIAN Z    26.137885     -0.911143  KCAL/ANGSTROM
     88         30  H    CARTESIAN X    38.144775      1.743184  KCAL/ANGSTROM
     89         30  H    CARTESIAN Y     4.688969     -1.011997  KCAL/ANGSTROM
     90         30  H    CARTESIAN Z     4.411074      0.047365  KCAL/ANGSTROM
     91         31  H    CARTESIAN X    27.736772     -0.484472  KCAL/ANGSTROM
     92         31  H    CARTESIAN Y   -15.792724     -3.197649  KCAL/ANGSTROM
     93         31  H    CARTESIAN Z    -8.680536     -5.832545  KCAL/ANGSTROM
     94         32  H    CARTESIAN X    28.001493      0.484170  KCAL/ANGSTROM
     95         32  H    CARTESIAN Y   -14.045505      3.194319  KCAL/ANGSTROM
     96         32  H    CARTESIAN Z    -5.493762      5.805705  KCAL/ANGSTROM
     97         33  H    CARTESIAN X    33.002237      0.099846  KCAL/ANGSTROM
     98         33  H    CARTESIAN Y     7.646049     -1.143671  KCAL/ANGSTROM
     99         33  H    CARTESIAN Z    32.753969      0.911455  KCAL/ANGSTROM
    100         34  H    CARTESIAN X    40.587755     -1.743182  KCAL/ANGSTROM
    101         34  H    CARTESIAN Y     3.271863      1.012012  KCAL/ANGSTROM
    102         34  H    CARTESIAN Z     4.477424     -0.047371  KCAL/ANGSTROM
    103         35  H    CARTESIAN X    49.554889     -0.542553  KCAL/ANGSTROM
    104         35  H    CARTESIAN Y   -17.846278      0.127334  KCAL/ANGSTROM
    105         35  H    CARTESIAN Z    24.287860      0.471852  KCAL/ANGSTROM
    106         36  H    CARTESIAN X   -17.828581     -0.424357  KCAL/ANGSTROM
    107         36  H    CARTESIAN Y    11.857148      4.341472  KCAL/ANGSTROM
    108         36  H    CARTESIAN Z    14.427657      1.749529  KCAL/ANGSTROM
    109         37  H    CARTESIAN X   -34.087405     -0.666803  KCAL/ANGSTROM
    110         37  H    CARTESIAN Y    -5.360221    -11.910923  KCAL/ANGSTROM
    111         37  H    CARTESIAN Z     0.450561      4.324999  KCAL/ANGSTROM
    112         38  H    CARTESIAN X   -34.126782      0.660903  KCAL/ANGSTROM
    113         38  H    CARTESIAN Y    -6.063810     11.907776  KCAL/ANGSTROM
    114         38  H    CARTESIAN Z     0.707935     -4.325501  KCAL/ANGSTROM
    115         39  H    CARTESIAN X   -20.791714     14.231184  KCAL/ANGSTROM
    116         39  H    CARTESIAN Y    21.612132    -30.873232  KCAL/ANGSTROM
    117         39  H    CARTESIAN Z   -15.433792     13.376228  KCAL/ANGSTROM
    118         40  H    CARTESIAN X   -20.505288    -14.234151  KCAL/ANGSTROM
    119         40  H    CARTESIAN Y    20.992413     30.878095  KCAL/ANGSTROM
    120         40  H    CARTESIAN Z   -15.164571    -13.381428  KCAL/ANGSTROM
    121         41  H    CARTESIAN X     7.164012      3.732139  KCAL/ANGSTROM
    122         41  H    CARTESIAN Y    12.299891     -1.652123  KCAL/ANGSTROM
    123         41  H    CARTESIAN Z   -17.676590      2.009427  KCAL/ANGSTROM
    124         42  H    CARTESIAN X   -10.879068      2.650519  KCAL/ANGSTROM
    125         42  H    CARTESIAN Y   -17.559168      4.231110  KCAL/ANGSTROM
    126         42  H    CARTESIAN Z    -0.532274     -4.063870  KCAL/ANGSTROM
    127         43  H    CARTESIAN X     9.401572     -3.732042  KCAL/ANGSTROM
    128         43  H    CARTESIAN Y    11.309750      1.652141  KCAL/ANGSTROM
    129         43  H    CARTESIAN Z   -16.471962     -2.009530  KCAL/ANGSTROM
    130         44  H    CARTESIAN X   -17.533242      0.424355  KCAL/ANGSTROM
    131         44  H    CARTESIAN Y     8.835399     -4.341463  KCAL/ANGSTROM
    132         44  H    CARTESIAN Z    13.210004     -1.749520  KCAL/ANGSTROM
    133         45  H    CARTESIAN X    -7.433750      0.027184  KCAL/ANGSTROM
    134         45  H    CARTESIAN Y    -7.059436     -0.009843  KCAL/ANGSTROM
    135         45  H    CARTESIAN Z    20.816687      0.017990  KCAL/ANGSTROM
    136         46  H    CARTESIAN X    60.467838      0.058629  KCAL/ANGSTROM
    137         46  H    CARTESIAN Y   -20.340914      0.153326  KCAL/ANGSTROM
    138         46  H    CARTESIAN Z    14.876381      0.147352  KCAL/ANGSTROM
    139         47  H    CARTESIAN X   -69.226158     62.961251  KCAL/ANGSTROM
    140         47  H    CARTESIAN Y    19.241992     34.247358  KCAL/ANGSTROM
    141         47  H    CARTESIAN Z    -4.842898     23.269581  KCAL/ANGSTROM
    142         48  H    CARTESIAN X   -64.572783     -0.028980  KCAL/ANGSTROM
    143         48  H    CARTESIAN Y    12.888587      0.009586  KCAL/ANGSTROM
    144         48  H    CARTESIAN Z   -16.529601     -0.020266  KCAL/ANGSTROM
    145         49  H    CARTESIAN X   -69.917332    -62.968285  KCAL/ANGSTROM
    146         49  H    CARTESIAN Y    18.866168    -34.241948  KCAL/ANGSTROM
    147         49  H    CARTESIAN Z    -5.098233    -23.265804  KCAL/ANGSTROM




   ATOM   CHEMICAL          X               Y               Z
  NUMBER   SYMBOL      (ANGSTROMS)     (ANGSTROMS)     (ANGSTROMS)
 
     1       O        -13.74006081  * -24.31292335  *   5.94253905  *
     2       C          6.93698297  *   0.83837593  *   8.58236568  *
     3       C         15.40561257  * -12.37888754  *   8.13927939  *
     4       C         13.20992613  *  11.07502284  *  18.23409842  *
     5       C         28.46392536  *  11.80598543  *  17.57654405  *
     6       C         28.08472823  * -13.45481086  *  -0.81600791  *
     7       C         34.28649952  *   0.98273244  *  26.33911035  *
     8       C         41.83032039  * -11.66099264  *   6.05975189  *
     9       C         40.22289569  *  -9.84473727  *  21.08562823  *
    10       C        -27.62312291  *  12.80679390  *   0.32569921  *
    11       C        -28.38690757  *  -2.59004051  *   1.03723725  *
    12       C        -18.15741097  *  17.18676281  * -10.98033715  *
    13       C         -3.22443527  *  13.36277077  * -13.04360797  *
    14       C        -15.22155659  *  -9.88025100  *   2.95743412  *
    15       C          6.44661952  *   7.23038092  *  -5.70191193  *
    16       C         -6.90680352  *  -2.72460023  *  13.51877332  *
    17       C         50.15977055  * -23.96175264  *   3.45846846  *
    18       O         45.48066727  * -33.09515684  *  -2.94948895  *
    19       O         63.51252860  * -22.18180399  *  10.89134592  *
    20       C        -52.21073285  *  10.84664512  *  -0.95793580  *
    21       O        -51.88834302  *   0.40250974  *   5.27315065  *
    22       O        -40.65885825  *  17.99086803  *  -2.29647790  *
    23       C        -65.02448751  *  15.61579114  *  -7.36902855  *
    24       H        -12.35979233  * -19.92067344  *   1.73580265  *
    25       H         13.43365987  * -17.78635205  *  11.73207218  *
    26       H         13.81526198  * -17.12699200  *  11.51539204  *
    27       H          9.42517322  *  14.76867448  *  22.01276858  *
    28       H          9.92824807  *  14.56159097  *  22.47800294  *
    29       H         32.27705730  *  15.95076999  *  26.13788518  *
    30       H         38.14477488  *   4.68896937  *   4.41107354  *
    31       H         27.73677174  * -15.79272440  *  -8.68053559  *
    32       H         28.00149298  * -14.04550497  *  -5.49376249  *
    33       H         33.00223735  *   7.64604881  *  32.75396906  *
    34       H         40.58775457  *   3.27186306  *   4.47742409  *
    35       H         49.55488887  * -17.84627837  *  24.28786014  *
    36       H        -17.82858102  *  11.85714849  *  14.42765736  *
    37       H        -34.08740494  *  -5.36022147  *   0.45056080  *
    38       H        -34.12678249  *  -6.06381003  *   0.70793542  *
    39       H        -20.79171440  *  21.61213221  * -15.43379151  *
    40       H        -20.50528776  *  20.99241332  * -15.16457134  *
    41       H          7.16401159  *  12.29989107  * -17.67659031  *
    42       H        -10.87906822  * -17.55916841  *  -0.53227374  *
    43       H          9.40157240  *  11.30974979  * -16.47196235  *
    44       H        -17.53324172  *   8.83539855  *  13.21000442  *
    45       H         -7.43375049  *  -7.05943648  *  20.81668745  *
    46       H         60.46783792  * -20.34091360  *  14.87638115  *
    47       H        -69.22615786  *  19.24199207  *  -4.84289774  *
    48       H        -64.57278253  *  12.88858744  * -16.52960063  *
    49       H        -69.91733232  *  18.86616821  *  -5.09823257  *

                             CARTESIAN COORDINATES

   1    O      -13.740060810   -24.312923345     5.942539048
   2    C        6.936982967     0.838375929     8.582365681
   3    C       15.405612567   -12.378887535     8.139279389
   4    C       13.209926130    11.075022839    18.234098418
   5    C       28.463925362    11.805985433    17.576544053
   6    C       28.084728230   -13.454810857    -0.816007912
   7    C       34.286499516     0.982732440    26.339110351
   8    C       41.830320386   -11.660992641     6.059751889
   9    C       40.222895694    -9.844737273    21.085628227
  10    C      -27.623122907    12.806793898     0.325699207
  11    C      -28.386907572    -2.590040507     1.037237246
  12    C      -18.157410972    17.186762811   -10.980337147
  13    C       -3.224435272    13.362770772   -13.043607973
  14    C      -15.221556589    -9.880251003     2.957434121
  15    C        6.446619517     7.230380916    -5.701911931
  16    C       -6.906803524    -2.724600231    13.518773322
  17    C       50.159770554   -23.961752644     3.458468456
  18    O       45.480667267   -33.095156843    -2.949488946
  19    O       63.512528596   -22.181803994    10.891345919
  20    C      -52.210732847    10.846645118    -0.957935804
  21    O      -51.888343016     0.402509739     5.273150645
  22    O      -40.658858253    17.990868031    -2.296477905
  23    C      -65.024487512    15.615791140    -7.369028552
  24    H      -12.359792328   -19.920673442     1.735802654
  25    H       13.433659874   -17.786352053    11.732072181
  26    H       13.815261983   -17.126992002    11.515392039
  27    H        9.425173215    14.768674479    22.012768577
  28    H        9.928248074    14.561590973    22.478002939
  29    H       32.277057298    15.950769990    26.137885176
  30    H       38.144774880     4.688969372     4.411073539
  31    H       27.736771738   -15.792724395    -8.680535593
  32    H       28.001492979   -14.045504971    -5.493762489
  33    H       33.002237353     7.646048813    32.753969062
  34    H       40.587754569     3.271863065     4.477424085
  35    H       49.554888871   -17.846278369    24.287860139
  36    H      -17.828581017    11.857148492    14.427657364
  37    H      -34.087404938    -5.360221471     0.450560803
  38    H      -34.126782491    -6.063810030     0.707935421
  39    H      -20.791714403    21.612132207   -15.433791515
  40    H      -20.505287764    20.992413318   -15.164571341
  41    H        7.164011588    12.299891072   -17.676590312
  42    H      -10.879068216   -17.559168415    -0.532273742
  43    H        9.401572396    11.309749789   -16.471962347
  44    H      -17.533241725     8.835398550    13.210004420
  45    H       -7.433750491    -7.059436484    20.816687449
  46    H       60.467837916   -20.340913602    14.876381146
  47    H      -69.226157862    19.241992075    -4.842897741
  48    H      -64.572782533    12.888587439   -16.529600628
  49    H      -69.917332321    18.866168210    -5.098232572


           Empirical Formula: C18 H26 O5  =    49 atoms



      MOLECULAR POINT GROUP   :   C1  


                  EIGENVALUES  
 -26.84051 -26.82843 -26.67908 -26.67700 -25.36611 -16.00392 -15.97977 -15.97954
 -15.97335 -15.97122 -15.97083 -15.97053 -15.96986 -15.96985 -15.96866 -15.96685
 -15.96555 -15.96318 -15.96002 -15.95941 -15.95470 -15.94865 -15.94682 -15.39357
 -15.23576 -15.09825 -14.77088 -14.48056 -11.49310 -11.49310 -11.48100 -11.48100
 -11.37344 -11.37344 -11.37194 -11.37194 -10.46434 -10.46373  -6.66181  -6.63767
  -6.63744  -6.63125  -6.62912  -6.62872  -6.62842  -6.62776  -6.62775  -6.62657
  -6.62475  -6.62345  -6.62108  -6.61792  -6.61731  -6.61260  -6.60655  -6.60472
  -6.19968  -6.17348  -6.00337  -5.87802  -5.85415  -4.85597  -4.68195  -4.17881
  -3.97455  -3.90707  -3.84885  -3.83674  -3.77221  -3.76979  -3.32894  -3.10805
  -2.13530  -2.12018  -1.99226  -1.82976  -1.79352   1.12359   1.12359   1.14774
   1.14774   1.14797   1.14797   1.15416   1.15416   1.15629   1.15629   1.15668
   1.15668   1.15698   1.15698   1.15765   1.15765   1.15766   1.15766   1.15885
   1.15886   1.16066   1.16066   1.16196   1.16196   1.16433   1.16433   1.16748
   1.16748   1.16809   1.16809   1.17281   1.17281   1.17886   1.17886   1.18069
   1.18069   6.47885   6.75841   7.11647   7.24823   7.38828


              NET ATOMIC CHARGES AND DIPOLE CONTRIBUTIONS

  ATOM NO.   TYPE          CHARGE      No. of ELECS.   s-Pop       p-Pop       
    1          O          -0.000004        6.0000     2.00000     4.00000
    2          C           0.000000        4.0000     2.00000     2.00000
    3          C          -0.000000        4.0000     2.00000     2.00000
    4          C          -0.000000        4.0000     2.00000     2.00000
    5          C           0.000000        4.0000     2.00000     2.00000
    6          C           0.000002        4.0000     2.00000     2.00000
    7          C           0.000000        4.0000     2.00000     2.00000
    8          C          -0.000000        4.0000     2.00000     2.00000
    9          C           0.000000        4.0000     2.00000     2.00000
   10          C           0.000000        4.0000     2.00000     2.00000
   11          C          -0.000000        4.0000     2.00000     2.00000
   12          C          -0.000000        4.0000     2.00000     2.00000
   13          C           0.000000        4.0000     2.00000     2.00000
   14          C           0.000000        4.0000     2.00000     2.00000
   15          C           0.000000        4.0000     2.00000     2.00000
   16          C           0.000000        4.0000     2.00000     2.00000
   17          C           0.000000        4.0000     2.00000     2.00000
   18          O          -0.000000        6.0000     2.00000     4.00000
   19          O          -0.125413        6.1254     2.00000     4.12541
   20          C           0.000000        4.0000     2.00000     2.00000
   21          O          -0.011932        6.0119     2.00000     4.01193
   22          O          -0.011770        6.0118     2.00000     4.01177
   23          C          -0.000000        4.0000     2.00000     2.00000
   24          H           0.000091        0.9999     0.99991
   25          H           0.000191        0.9998     0.99981
   26          H          -0.000191        1.0002     1.00019
   27          H           0.000024        1.0000     0.99998
   28          H          -0.000024        1.0000     1.00002
   29          H           0.000291        0.9997     0.99971
   30          H           0.000003        1.0000     1.00000
   31          H          -0.000569        1.0006     1.00057
   32          H           0.000568        0.9994     0.99943
   33          H          -0.000291        1.0003     1.00029
   34          H          -0.000003        1.0000     1.00000
   35          H           0.053070        0.9469     0.94693
   36          H           0.000085        0.9999     0.99991
   37          H          -0.000003        1.0000     1.00000
   38          H           0.000003        1.0000     1.00000
   39          H           0.000162        0.9998     0.99984
   40          H          -0.000162        1.0002     1.00016
   41          H           0.000026        1.0000     0.99997
   42          H          -0.000087        1.0001     1.00009
   43          H          -0.000026        1.0000     1.00003
   44          H          -0.000085        1.0001     1.00009
   45          H           0.011471        0.9885     0.98853
   46          H           0.072342        0.9277     0.92766
   47          H          -0.000008        1.0000     1.00001
   48          H           0.012231        0.9878     0.98777
   49          H           0.000008        1.0000     0.99999
 DIPOLE           X         Y         Z       TOTAL
 POINT-CHG.    -3.549     1.090     4.804     6.071
 HYBRID        -0.000    -0.000     0.000     0.000
 SUM           -3.549     1.090     4.804     6.071


          ATOMIC ORBITAL ELECTRON POPULATIONS

     Atom    s        px        py        pz   
    1  O   2.00000   1.37122   1.30243   1.32635
    2  C   2.00000   0.77317   0.70121   0.52562
    3  C   2.00000   0.66667   0.66665   0.66668
    4  C   2.00000   0.66716   0.66604   0.66680
    5  C   2.00000   0.66439   0.66668   0.66892
    6  C   2.00000   0.66645   0.66646   0.66709
    7  C   2.00000   0.65111   0.66697   0.68193
    8  C   2.00000   0.51017   0.75043   0.73940
    9  C   2.00000   0.81294   0.50394   0.68312
   10  C   2.00000   0.66778   0.66677   0.66545
   11  C   2.00000   0.58159   0.75503   0.66338
   12  C   2.00000   0.65427   0.67828   0.66745
   13  C   2.00000   0.86529   0.56714   0.56757
   14  C   2.00000   0.66670   0.66666   0.66664
   15  C   2.00000   0.78675   0.45432   0.75893
   16  C   2.00000   0.55534   0.73912   0.70554
   17  C   2.00000   0.66678   0.66655   0.66667
   18  O   2.00000   1.53349   1.11234   1.35417
   19  O   2.00000   1.37442   1.37522   1.37578
   20  C   2.00000   0.66657   0.66721   0.66622
   21  O   2.00000   1.33953   1.33759   1.33482
   22  O   2.00000   1.34145   1.33729   1.33303
   23  C   2.00000   0.66671   0.66659   0.66670
   24  H   0.99991
   25  H   0.99981
   26  H   1.00019
   27  H   0.99998
   28  H   1.00002
   29  H   0.99971
   30  H   1.00000
   31  H   1.00057
   32  H   0.99943
   33  H   1.00029
   34  H   1.00000
   35  H   0.94693
   36  H   0.99991
   37  H   1.00000
   38  H   1.00000
   39  H   0.99984
   40  H   1.00016
   41  H   0.99997
   42  H   1.00009
   43  H   1.00003
   44  H   1.00009
   45  H   0.98853
   46  H   0.92766
   47  H   1.00001
   48  H   0.98777
   49  H   0.99999

 **********************
 *                    *
 * JOB ENDED NORMALLY *
 *                    *
 **********************



 TOTAL JOB TIME:            13.59 SECONDS

 == MOPAC DONE ==
