 argument  1 = P4.geopt_freq_b3lyp_6-31G.nw



============================== echo of input deck ==============================
echo

start molecule

title "P4"
charge 0
print low

geometry units angstroms print xyz autosym
   P       -6.19695       -0.13481       -0.17820
   P       -4.49112        1.25152       -0.04768
   P       -4.14294       -0.92252       -0.08148
   P       -4.84225        0.10887       -1.89697
end

basis
  * library 6-31G*
end

dft
  xc b3lyp
  mult 1
end

task dft optimize
task dft freq
================================================================================


                                         
                                         


             Northwest Computational Chemistry Package (NWChem) 7.0.2
             --------------------------------------------------------


                    Environmental Molecular Sciences Laboratory
                       Pacific Northwest National Laboratory
                                Richland, WA 99352

                              Copyright (c) 1994-2020
                       Pacific Northwest National Laboratory
                            Battelle Memorial Institute

             NWChem is an open-source computational chemistry package
                        distributed under the terms of the
                      Educational Community License (ECL) 2.0
             A copy of the license is included with this distribution
                              in the LICENSE.TXT file

                                  ACKNOWLEDGMENT
                                  --------------

            This software and its documentation were developed at the
            EMSL at Pacific Northwest National Laboratory, a multiprogram
            national laboratory, operated for the U.S. Department of Energy
            by Battelle under Contract Number DE-AC05-76RL01830. Support
            for this work was provided by the Department of Energy Office
            of Biological and Environmental Research, Office of Basic
            Energy Sciences, and the Office of Advanced Scientific Computing.


           Job information
           ---------------

    hostname        = DESKTOP-7OTLCGO
    program         = nwchem
    date            = Tue Jan 21 15:52:10 2025

    compiled        = Sat_Apr_09_17:12:10_2022
    source          = /build/nwchem-f1f4gx/nwchem-7.0.2/build-openmpi
    nwchem branch   = 7.0.2
    nwchem revision = N/A
    ga revision     = 5.8.1
    use scalapack   = T
    input           = P4.geopt_freq_b3lyp_6-31G.nw
    prefix          = molecule.
    data base       = ./molecule.db
    status          = startup
    nproc           =        8
    time left       =     -1s



           Memory information
           ------------------

    heap     =   13107198 doubles =    100.0 Mbytes
    stack    =   13107195 doubles =    100.0 Mbytes
    global   =   26214400 doubles =    200.0 Mbytes (distinct from heap & stack)
    total    =   52428793 doubles =    400.0 Mbytes
    verify   = yes
    hardfail = no 


           Directory information
           ---------------------

  0 permanent = .
  0 scratch   = .




                                NWChem Input Module
                                -------------------


                                        P4
                                        --

 Scaling coordinates for geometry "geometry" by  1.889725989
 (inverse scale =  0.529177249)


          ------
          auto-z
          ------
  no constraints, skipping    0.0000000000000000     
  no constraints, skipping    0.0000000000000000     


                             Geometry "geometry" -> ""
                             -------------------------

 Output coordinates in angstroms (scale by  1.889725989 to convert to a.u.)

  No.       Tag          Charge          X              Y              Z
 ---- ---------------- ---------- -------------- -------------- --------------
    1 P                   15.0000    -0.56811178     0.34317433    -1.17378492
    2 P                   15.0000    -0.03179397    -1.34080928     0.13974648
    3 P                   15.0000     1.27992786     0.42386059     0.02080208
    4 P                   15.0000    -0.68002210     0.57377436     1.01323636

      Atomic Mass 
      ----------- 

      P                 30.973760


 Effective nuclear repulsion energy (a.u.)     324.4275814653

            Nuclear Dipole moment (a.u.) 
            ----------------------------
        X                 Y               Z
 ---------------- ---------------- ----------------
    -0.0000000000     0.0000000000     0.0000000000



                                Z-matrix (autoz)
                                -------- 

 Units are Angstrom for bonds and degrees for angles

      Type          Name      I     J     K     L     M      Value
      ----------- --------  ----- ----- ----- ----- ----- ----------
    1 Stretch                  1     2                       2.20200
    2 Stretch                  1     3                       2.20200
    3 Stretch                  1     4                       2.20199
    4 Stretch                  2     3                       2.20200
    5 Stretch                  2     4                       2.20200
    6 Stretch                  3     4                       2.20200
    7 Bend                     1     2     3                59.99991
    8 Bend                     1     2     4                59.99968
    9 Bend                     1     3     2                59.99995
   10 Bend                     1     3     4                59.99973
   11 Bend                     1     4     2                60.00009
   12 Bend                     1     4     3                60.00011
   13 Bend                     2     1     3                60.00014
   14 Bend                     2     1     4                60.00022
   15 Bend                     2     3     4                60.00001
   16 Bend                     2     4     3                60.00008
   17 Bend                     3     1     4                60.00016
   18 Bend                     3     2     4                59.99990
   19 Torsion                  1     2     3     4          70.52847
   20 Torsion                  1     2     4     3         -70.52884
   21 Torsion                  1     3     2     4         -70.52847
   22 Torsion                  1     3     4     2          70.52882
   23 Torsion                  1     4     2     3          70.52884
   24 Torsion                  1     4     3     2         -70.52882
   25 Torsion                  2     1     3     4         -70.52893
   26 Torsion                  2     1     4     3          70.52880
   27 Torsion                  2     3     1     4          70.52893
   28 Torsion                  2     4     1     3         -70.52880
   29 Torsion                  3     1     2     4          70.52882
   30 Torsion                  3     2     1     4         -70.52882


            XYZ format geometry
            -------------------
     4
 geometry
 P                    -0.56811178     0.34317433    -1.17378492
 P                    -0.03179397    -1.34080928     0.13974648
 P                     1.27992786     0.42386059     0.02080208
 P                    -0.68002210     0.57377436     1.01323636

 ==============================================================================
                                internuclear distances
 ------------------------------------------------------------------------------
       center one      |      center two      | atomic units |  angstroms
 ------------------------------------------------------------------------------
    2 P                |   1 P                |     4.16118  |     2.20200
    3 P                |   1 P                |     4.16117  |     2.20200
    3 P                |   2 P                |     4.16118  |     2.20200
    4 P                |   1 P                |     4.16116  |     2.20199
    4 P                |   2 P                |     4.16118  |     2.20200
    4 P                |   3 P                |     4.16118  |     2.20200
 ------------------------------------------------------------------------------
                         number of included internuclear distances:          6
 ==============================================================================



 ==============================================================================
                                 internuclear angles
 ------------------------------------------------------------------------------
        center 1       |       center 2       |       center 3       |  degrees
 ------------------------------------------------------------------------------
    2 P                |   1 P                |   3 P                |    60.00
    2 P                |   1 P                |   4 P                |    60.00
    3 P                |   1 P                |   4 P                |    60.00
    2 P                |   1 P                |   3 P                |    60.00
    2 P                |   1 P                |   4 P                |    60.00
    2 P                |   4 P                |   3 P                |    60.00
    3 P                |   1 P                |   2 P                |    60.00
    3 P                |   1 P                |   4 P                |    60.00
    3 P                |   4 P                |   2 P                |    60.00
    4 P                |   1 P                |   2 P                |    60.00
    4 P                |   1 P                |   3 P                |    60.00
    2 P                |   4 P                |   3 P                |    60.00
 ------------------------------------------------------------------------------
                            number of included internuclear angles:         12
 ==============================================================================





 Summary of "ao basis" -> "" (cartesian)
 ------------------------------------------------------------------------------
       Tag                 Description            Shells   Functions and Types
 ---------------- ------------------------------  ------  ---------------------
 *                           6-31G*                   on all atoms 




                           NWChem Geometry Optimization
                           ----------------------------




                                        P4


  no constraints, skipping    0.0000000000000000     
 maximum gradient threshold         (gmax) =   0.000450
 rms gradient threshold             (grms) =   0.000300
 maximum cartesian step threshold   (xmax) =   0.001800
 rms cartesian step threshold       (xrms) =   0.001200
 fixed trust radius                (trust) =   0.300000
 maximum step size to saddle      (sadstp) =   0.100000
 energy precision                  (eprec) =   5.0D-06
 maximum number of steps          (nptopt) =   20
 initial hessian option           (inhess) =    0
 line search option               (linopt) =    1
 hessian update option            (modupd) =    1
 saddle point option              (modsad) =    0
 initial eigen-mode to follow     (moddir) =    0
 initial variable to follow       (vardir) =    0
 follow first negative mode     (firstneg) =    T
 apply conjugacy                    (opcg) =    F
 source of zmatrix                         =   autoz   


          -------------------
          Energy Minimization
          -------------------


 Names of Z-matrix variables 
    1              2              3              4              5         
    6              7              8              9             10         
   11             12             13             14             15         
   16             17             18             19             20         
   21             22             23             24             25         
   26             27             28             29             30         

 Variables with the same non-blank name are constrained to be equal


 Using diagonal initial Hessian 
 Scaling for Hessian diagonals: bonds = 1.00  angles = 0.25  torsions = 0.10

          --------
          Step   0
          --------

                                 NWChem DFT Module
                                 -----------------


                                        P4


                      Basis "ao basis" -> "ao basis" (cartesian)
                      -----
  P (Phosphorous)
  ---------------
            Exponent  Coefficients 
       -------------- ---------------------------------------------------------
  1 S  1.94133000E+04  0.001852
  1 S  2.90942000E+03  0.014206
  1 S  6.61364000E+02  0.070000
  1 S  1.85759000E+02  0.240079
  1 S  5.91943000E+01  0.484762
  1 S  2.00310000E+01  0.335200

  2 S  3.39478000E+02 -0.002782
  2 S  8.10101000E+01 -0.036050
  2 S  2.58780000E+01 -0.116631
  2 S  9.45221000E+00  0.096833
  2 S  3.66566000E+00  0.614418
  2 S  1.46746000E+00  0.403798

  3 P  3.39478000E+02  0.004565
  3 P  8.10101000E+01  0.033694
  3 P  2.58780000E+01  0.139755
  3 P  9.45221000E+00  0.339362
  3 P  3.66566000E+00  0.450921
  3 P  1.46746000E+00  0.238586

  4 S  2.15623000E+00 -0.252923
  4 S  7.48997000E-01  0.032852
  4 S  2.83145000E-01  1.081250

  5 P  2.15623000E+00 -0.017765
  5 P  7.48997000E-01  0.274058
  5 P  2.83145000E-01  0.785421

  6 S  9.98317000E-02  1.000000

  7 P  9.98317000E-02  1.000000

  8 D  5.50000000E-01  1.000000



 Summary of "ao basis" -> "ao basis" (cartesian)
 ------------------------------------------------------------------------------
       Tag                 Description            Shells   Functions and Types
 ---------------- ------------------------------  ------  ---------------------
 P                           6-31G*                  8       19   4s3p1d



  Caching 1-el integrals 
   Time after variat. SCF:      0.1
   Time prior to 1st pass:      0.1


         Total DFT energy =    -1365.441541471772
      One electron energy =    -2534.612200553627
           Coulomb energy =      937.800361073387
    Exchange-Corr. energy =      -93.057283456878
 Nuclear repulsion energy =      324.427581465345

 Numeric. integr. density =       59.999999775962

     Total iterative time =      0.7s




                         DFT ENERGY GRADIENTS

    atom               coordinates                        gradient
                 x          y          z           x          y          z
   1 P      -1.073576   0.648505  -2.218132    0.003396  -0.002050   0.007017
   2 P      -0.060082  -2.533762   0.264083    0.000189   0.008011  -0.000836
   3 P       2.418713   0.800980   0.039310   -0.007649  -0.002532  -0.000124
   4 P      -1.285055   1.084276   1.914739    0.004064  -0.003428  -0.006057

  no constraints, skipping    0.0000000000000000     

@ Step       Energy      Delta E   Gmax     Grms     Xrms     Xmax   Walltime
@ ---- ---------------- -------- -------- -------- -------- -------- --------
@    0   -1365.44154147  0.0D+00  0.00329  0.00147  0.00000  0.00000      1.2
                                                                    

  no constraints, skipping    0.0000000000000000     
  no constraints, skipping    0.0000000000000000     
  no constraints, skipping    0.0000000000000000     

                                 NWChem DFT Module
                                 -----------------


                                        P4



  Caching 1-el integrals 
   Time after variat. SCF:      1.2
   Time prior to 1st pass:      1.2


         Total DFT energy =    -1365.441693617295
      One electron energy =    -2533.182606924848
           Coulomb energy =      937.077715807113
    Exchange-Corr. energy =      -93.050865550545
 Nuclear repulsion energy =      323.714063050985

 Numeric. integr. density =       59.999999769417

     Total iterative time =      0.5s


 Line search: 
     step= 1.00 grad=-1.8D-04 hess= 2.9D-05 energy=  -1365.441694 mode=downhill
 new step= 3.13                   predicted energy=  -1365.441825
  no constraints, skipping    0.0000000000000000     
  no constraints, skipping    0.0000000000000000     
  no constraints, skipping    0.0000000000000000     

          --------
          Step   1
          --------

                                 NWChem DFT Module
                                 -----------------


                                        P4



  Caching 1-el integrals 
   Time after variat. SCF:      1.7
   Time prior to 1st pass:      1.7


         Total DFT energy =    -1365.441829033108
      One electron energy =    -2530.158059670323
           Coulomb energy =      935.550114444609
    Exchange-Corr. energy =      -93.037450107185
 Nuclear repulsion energy =      322.203566299791

 Numeric. integr. density =       59.999999742387

     Total iterative time =      0.6s




                         DFT ENERGY GRADIENTS

    atom               coordinates                        gradient
                 x          y          z           x          y          z
   1 P      -1.080985   0.652982  -2.233450    0.000085  -0.000050   0.000176
   2 P      -0.060496  -2.551244   0.265908    0.000004   0.000196  -0.000021
   3 P       2.435407   0.806506   0.039581   -0.000189  -0.000062  -0.000003
   4 P      -1.293926   1.091757   1.927962    0.000101  -0.000085  -0.000152

  no constraints, skipping    0.0000000000000000     

  Step       Energy      Delta E   Gmax     Grms     Xrms     Xmax   Walltime
  ---- ---------------- -------- -------- -------- -------- -------- --------
@    1   -1365.44182903 -2.9D-04  0.00008  0.00004  0.01015  0.01748      2.7
                                     ok       ok                    

  no constraints, skipping    0.0000000000000000     
  no constraints, skipping    0.0000000000000000     
  no constraints, skipping    0.0000000000000000     

                                 NWChem DFT Module
                                 -----------------


                                        P4



  Caching 1-el integrals 
   Time after variat. SCF:      2.7
   Time prior to 1st pass:      2.7


         Total DFT energy =    -1365.441829191401
      One electron energy =    -2530.041771871032
           Coulomb energy =      935.489331868712
    Exchange-Corr. energy =      -93.036809799457
 Nuclear repulsion energy =      322.147420610377

 Numeric. integr. density =       59.999999744853

     Total iterative time =      0.3s


 Line search: 
     step= 1.00 grad=-3.6D-07 hess= 2.0D-07 energy=  -1365.441829 mode=accept  
 new step= 1.00                   predicted energy=  -1365.441829
  no constraints, skipping    0.0000000000000000     
  no constraints, skipping    0.0000000000000000     
  no constraints, skipping    0.0000000000000000     

          --------
          Step   2
          --------

                                 NWChem DFT Module
                                 -----------------


                                        P4




  The DFT is already converged 

         Total DFT energy =  -1365.441829191401



                         DFT ENERGY GRADIENTS

    atom               coordinates                        gradient
                 x          y          z           x          y          z
   1 P      -1.081174   0.653095  -2.233842    0.000007  -0.000003   0.000016
   2 P      -0.060505  -2.551686   0.265954   -0.000001   0.000011  -0.000002
   3 P       2.435831   0.806645   0.039588   -0.000014  -0.000003  -0.000001
   4 P      -1.294151   1.091946   1.928300    0.000008  -0.000006  -0.000013

  no constraints, skipping    0.0000000000000000     

  Step       Energy      Delta E   Gmax     Grms     Xrms     Xmax   Walltime
  ---- ---------------- -------- -------- -------- -------- -------- --------
@    2   -1365.44182919 -1.6D-07  0.00001  0.00000  0.00026  0.00044      3.3
                                     ok       ok       ok       ok  


      ----------------------
      Optimization converged
      ----------------------


  Step       Energy      Delta E   Gmax     Grms     Xrms     Xmax   Walltime
  ---- ---------------- -------- -------- -------- -------- -------- --------
@    2   -1365.44182919 -1.6D-07  0.00001  0.00000  0.00026  0.00044      3.3
                                     ok       ok       ok       ok  



                         Geometry "geometry" -> "geometry"
                         ---------------------------------

 Output coordinates in angstroms (scale by  1.889725989 to convert to a.u.)

  No.       Tag          Charge          X              Y              Z
 ---- ---------------- ---------- -------------- -------------- --------------
    1 P                   15.0000    -0.57213294     0.34560295    -1.18209853
    2 P                   15.0000    -0.03201800    -1.35029404     0.14073695
    3 P                   15.0000     1.28898634     0.42685796     0.02094924
    4 P                   15.0000    -0.68483540     0.57783313     1.02041234

      Atomic Mass 
      ----------- 

      P                 30.973760


 Effective nuclear repulsion energy (a.u.)     322.1474206104

            Nuclear Dipole moment (a.u.) 
            ----------------------------
        X                 Y               Z
 ---------------- ---------------- ----------------
    -0.0000000000     0.0000000000    -0.0000000000


                Final and change from initial internal coordinates
                --------------------------------------------------



                                Z-matrix (autoz)
                                -------- 

 Units are Angstrom for bonds and degrees for angles

      Type          Name      I     J     K     L     M      Value       Change
      ----------- --------  ----- ----- ----- ----- ----- ---------- ----------
    1 Stretch                  1     2                       2.21759    0.01559
    2 Stretch                  1     3                       2.21759    0.01559
    3 Stretch                  1     4                       2.21759    0.01560
    4 Stretch                  2     3                       2.21758    0.01558
    5 Stretch                  2     4                       2.21758    0.01558
    6 Stretch                  3     4                       2.21759    0.01559
    7 Bend                     1     2     3                60.00009    0.00018
    8 Bend                     1     2     4                60.00005    0.00037
    9 Bend                     1     3     2                60.00002    0.00008
   10 Bend                     1     3     4                59.99997    0.00023
   11 Bend                     1     4     2                60.00003   -0.00007
   12 Bend                     1     4     3                60.00001   -0.00010
   13 Bend                     2     1     3                59.99989   -0.00026
   14 Bend                     2     1     4                59.99992   -0.00030
   15 Bend                     2     3     4                59.99995   -0.00007
   16 Bend                     2     4     3                59.99992   -0.00017
   17 Bend                     3     1     4                60.00002   -0.00014
   18 Bend                     3     2     4                60.00013    0.00023
   19 Torsion                  1     2     3     4          70.52875    0.00028
   20 Torsion                  1     2     4     3         -70.52882    0.00002
   21 Torsion                  1     3     2     4         -70.52875   -0.00028
   22 Torsion                  1     3     4     2          70.52884    0.00003
   23 Torsion                  1     4     2     3          70.52882   -0.00002
   24 Torsion                  1     4     3     2         -70.52884   -0.00003
   25 Torsion                  2     1     3     4         -70.52872    0.00021
   26 Torsion                  2     1     4     3          70.52866   -0.00014
   27 Torsion                  2     3     1     4          70.52872   -0.00021
   28 Torsion                  2     4     1     3         -70.52866    0.00014
   29 Torsion                  3     1     2     4          70.52889    0.00006
   30 Torsion                  3     2     1     4         -70.52889   -0.00006



                                NWChem Input Module
                                -------------------




                   NWChem Nuclear Hessian and Frequency Analysis
                   ---------------------------------------------



                              NWChem Analytic Hessian
                              -----------------------


                                 NWChem DFT Module
                                 -----------------


                                        P4



  Caching 1-el integrals 
   Time after variat. SCF:      3.3
   Time prior to 1st pass:      3.3


         Total DFT energy =    -1365.441829286316
      One electron energy =    -2530.044201519872
           Coulomb energy =      935.491845280689
    Exchange-Corr. energy =      -93.036893657510
 Nuclear repulsion energy =      322.147420610377

 Numeric. integr. density =       59.999999984860

     Total iterative time =      0.4s



 HESSIAN: the one electron contributions are done in       0.0s


 HESSIAN: 2-el 1st deriv. term done in                     0.4s


 HESSIAN: 2-el 2nd deriv. term done in                     0.8s

  stpr_wrt_fd_from_sq: overwrite of existing file:./molecule.hess
 stpr_wrt_fd_dipole: overwrite of existing file./molecule.fd_ddipole

 HESSIAN: the two electron contributions are done in       4.0s

 SCF residual:    6.1875787807465327E-005
 HESSIAN: the CPHF contributions are done
  stpr_wrt_fd_from_sq: overwrite of existing file:./molecule.hess
 stpr_wrt_fd_dipole: overwrite of existing file./molecule.fd_ddipole

 Derivative Dipole

  
  
 X vector of derivative dipole (au) [debye/angstrom]
 d_dipole_x/<atom=   1,x> =     0.0387     [    0.1857]
 d_dipole_x/<atom=   1,y> =     0.0266     [    0.1279]
 d_dipole_x/<atom=   1,z> =    -0.0911     [   -0.4375]
 d_dipole_x/<atom=   2,x> =     0.0827     [    0.3971]
 d_dipole_x/<atom=   2,y> =    -0.0058     [   -0.0280]
 d_dipole_x/<atom=   2,z> =     0.0006     [    0.0029]
 d_dipole_x/<atom=   3,x> =    -0.1410     [   -0.6770]
 d_dipole_x/<atom=   3,y> =    -0.0741     [   -0.3559]
 d_dipole_x/<atom=   3,z> =    -0.0036     [   -0.0174]
 d_dipole_x/<atom=   4,x> =     0.0196     [    0.0942]
 d_dipole_x/<atom=   4,y> =     0.0533     [    0.2560]
 d_dipole_x/<atom=   4,z> =     0.0941     [    0.4520]
  
 Y vector of derivative dipole (au) [debye/angstrom]
 d_dipole_y/<atom=   1,x> =     0.0266     [    0.1279]
 d_dipole_y/<atom=   1,y> =     0.0666     [    0.3201]
 d_dipole_y/<atom=   1,z> =     0.0550     [    0.2643]
 d_dipole_y/<atom=   2,x> =    -0.0058     [   -0.0280]
 d_dipole_y/<atom=   2,y> =    -0.1627     [   -0.7814]
 d_dipole_y/<atom=   2,z> =     0.0256     [    0.1229]
 d_dipole_y/<atom=   3,x> =    -0.0741     [   -0.3558]
 d_dipole_y/<atom=   3,y> =     0.0583     [    0.2798]
 d_dipole_y/<atom=   3,z> =    -0.0012     [   -0.0058]
 d_dipole_y/<atom=   4,x> =     0.0533     [    0.2559]
 d_dipole_y/<atom=   4,y> =     0.0378     [    0.1815]
 d_dipole_y/<atom=   4,z> =    -0.0794     [   -0.3814]
  
 Z vector of derivative dipole (au) [debye/angstrom]
 d_dipole_z/<atom=   1,x> =    -0.0911     [   -0.4375]
 d_dipole_z/<atom=   1,y> =     0.0550     [    0.2643]
 d_dipole_z/<atom=   1,z> =    -0.1054     [   -0.5064]
 d_dipole_z/<atom=   2,x> =     0.0006     [    0.0029]
 d_dipole_z/<atom=   2,y> =     0.0256     [    0.1229]
 d_dipole_z/<atom=   2,z> =     0.0802     [    0.3850]
 d_dipole_z/<atom=   3,x> =    -0.0036     [   -0.0174]
 d_dipole_z/<atom=   3,y> =    -0.0012     [   -0.0058]
 d_dipole_z/<atom=   3,z> =     0.0827     [    0.3974]
 d_dipole_z/<atom=   4,x> =     0.0941     [    0.4520]
 d_dipole_z/<atom=   4,y> =    -0.0794     [   -0.3814]
 d_dipole_z/<atom=   4,z> =    -0.0575     [   -0.2760]
  
  
 HESSIAN: the Hessian is done


  Vibrational analysis via the FX method 

  See chapter 2 in "Molecular Vibrations" by Wilson, Decius and Cross

  Vib: Default input used 

  Nuclear Hessian passed symmetry test 



 ---------------------------- Atom information ----------------------------
     atom    #        X              Y              Z            mass
 --------------------------------------------------------------------------
    P        1 -1.0811745D+00  6.5309487D-01 -2.2338423D+00  3.0973760D+01
    P        2 -6.0505244D-02 -2.5516857D+00  2.6595428D-01  3.0973760D+01
    P        3  2.4358310D+00  8.0664459D-01  3.9588319D-02  3.0973760D+01
    P        4 -1.2941512D+00  1.0919463D+00  1.9282997D+00  3.0973760D+01
 --------------------------------------------------------------------------




          ----------------------------------------------------
          MASS-WEIGHTED NUCLEAR HESSIAN (Hartree/Bohr/Bohr/Kamu)
          ----------------------------------------------------


               1            2            3            4            5            6            7            8            9           10
   ----- ----- ----- ----- -----
    1    3.22756D+00
    2   -5.63933D-01  2.63467D+00
    3    1.92886D+00 -1.16516D+00  6.27928D+00
    4   -4.31994D-01  8.91102D-01 -4.76093D-01  2.29699D+00
    5    5.31790D-01 -2.21266D+00  1.34533D+00  1.23325D-01  7.49411D+00
    6   -4.21818D-01  2.05492D+00 -1.40253D+00 -1.28592D-02 -5.41958D-01  2.35052D+00
    7   -2.67931D+00 -2.12706D-01 -1.32985D+00 -1.35146D+00 -1.38960D+00  9.06201D-02  7.03254D+00
    8    1.03541D-01 -2.06436D-01 -3.85786D-02 -2.18139D+00 -2.42900D+00  1.17177D-01  1.56924D+00  2.81373D+00
    9   -2.02300D+00 -2.73267D-01 -1.16142D+00  1.74110D-01  1.57694D-01 -2.66775D-01  7.70048D-02  2.54920D-02  2.29526D+00
   10   -1.16263D-01 -1.14462D-01 -1.22920D-01 -5.13537D-01  7.34473D-01  3.44058D-01 -3.00179D+00  5.08603D-01  1.77188D+00  3.63159D+00
   11   -7.13973D-02 -2.15572D-01 -1.41586D-01  1.16696D+00 -2.85246D+00 -1.63013D+00  3.30463D-02 -1.78298D-01  9.00762D-02 -1.12861D+00
   12    5.15951D-01 -6.16483D-01 -3.71533D+00  3.14847D-01 -9.61067D-01 -6.81222D-01  1.16222D+00 -1.04092D-01 -8.67063D-01 -1.99302D+00


              11           12
   ----- ----- ----- ----- -----
   11    3.24633D+00
   12    1.68164D+00  5.26362D+00



          -------------------------------------------------
          NORMAL MODE EIGENVECTORS IN CARTESIAN COORDINATES
          -------------------------------------------------
                 (Frequencies expressed in cm-1)

                    1           2           3           4           5           6
 
 Frequency         -2.02       -1.96       -1.82       -0.44       -0.09        0.25
 
           1    -0.01736    -0.02417    -0.09472     0.06564    -0.01215     0.06095
           2    -0.01731    -0.10475     0.01594     0.05983     0.02773    -0.05931
           3     0.00265    -0.01889     0.05104     0.01023    -0.08450    -0.02811
           4     0.10414     0.03354     0.01607     0.06492    -0.01278     0.05971
           5    -0.00488     0.00884    -0.00259     0.06063     0.02756    -0.06053
           6    -0.03102     0.10318    -0.01795     0.01155    -0.08447    -0.02916
           7    -0.03275    -0.00947     0.00063     0.06579    -0.01158     0.06038
           8     0.10021     0.03044     0.00366     0.05988     0.02661    -0.06089
           9     0.01852    -0.05075    -0.09563     0.01000    -0.08529    -0.02712
          10    -0.05200     0.00079     0.07956     0.06595    -0.01106     0.05994
          11    -0.07508     0.06083    -0.01828     0.06167     0.02815    -0.06099
          12     0.00697    -0.03507     0.06357     0.01005    -0.08449    -0.02798

                    7           8           9          10          11          12
 
 Frequency        367.33      367.33      463.78      463.78      463.78      606.80
 
           1     0.02723    -0.07680    -0.01664     0.05313    -0.05554    -0.03785
           2     0.08482     0.01880    -0.06194    -0.01512     0.02747     0.02286
           3     0.01162     0.04267     0.00193    -0.03139    -0.11055    -0.07820
           4     0.02868     0.08511    -0.01921     0.05461     0.02631    -0.00212
           5     0.00815    -0.00497     0.11197     0.01749     0.05624    -0.08933
           6     0.08475    -0.02833    -0.02940    -0.03341     0.04675     0.00931
           7     0.01449     0.02428     0.09196    -0.07643    -0.02541     0.08528
           8    -0.03987    -0.07539    -0.01981    -0.05867    -0.03739     0.02824
           9    -0.07919     0.04240    -0.00982    -0.03208     0.05397     0.00139
          10    -0.07040    -0.03259    -0.05611    -0.03130     0.05465    -0.04531
          11    -0.05310     0.06156    -0.03022     0.05629    -0.04632     0.03823
          12    -0.01718    -0.05674     0.03729     0.09687     0.00983     0.06751
  
  
 ----------------------------------------------------------------------------
 Normal Eigenvalue ||                 Infra Red Intensities
  Mode   [cm**-1]  || [atomic units] [(debye/angs)**2] [(KM/mol)] [arbitrary]
 ------ ---------- || -------------- ----------------- ---------- -----------
    1       -2.019 ||    0.000000           0.000         0.000       0.000
    2       -1.964 ||    0.000000           0.000         0.000       0.000
    3       -1.823 ||    0.000000           0.000         0.000       0.000
    4       -0.443 ||    0.000000           0.000         0.000       0.000
    5       -0.086 ||    0.000000           0.000         0.000       0.000
    6        0.247 ||    0.000000           0.000         0.000       0.000
    7      367.332 ||    0.000000           0.000         0.000       0.000
    8      367.333 ||    0.000000           0.000         0.000       0.000
    9      463.780 ||    0.001769           0.041         1.724      39.978
   10      463.783 ||    0.001770           0.041         1.726      40.005
   11      463.784 ||    0.001771           0.041         1.726      40.018
   12      606.799 ||    0.000000           0.000         0.000       0.000
 ----------------------------------------------------------------------------





        Vibrational analysis via the FX method 
  --- with translations and rotations projected out ---
  --- via the Eckart algorithm                      ---

          --------------------------------------------------------
          MASS-WEIGHTED PROJECTED HESSIAN (Hartree/Bohr/Bohr/Kamu)
          --------------------------------------------------------


               1            2            3            4            5            6            7            8            9           10
   ----- ----- ----- ----- -----
    1    3.22761D+00
    2   -5.63934D-01  2.63471D+00
    3    1.92885D+00 -1.16516D+00  6.27929D+00
    4   -4.32016D-01  8.91076D-01 -4.76090D-01  2.29705D+00
    5    5.31791D-01 -2.21266D+00  1.34533D+00  1.23328D-01  7.49411D+00
    6   -4.21818D-01  2.05487D+00 -1.40254D+00 -1.28603D-02 -5.41953D-01  2.35059D+00
    7   -2.67930D+00 -2.12701D-01 -1.32985D+00 -1.35146D+00 -1.38959D+00  9.06238D-02  7.03254D+00
    8    1.03524D-01 -2.06456D-01 -3.85736D-02 -2.18134D+00 -2.42900D+00  1.17174D-01  1.56924D+00  2.81378D+00
    9   -2.02296D+00 -2.73246D-01 -1.16143D+00  1.74107D-01  1.57693D-01 -2.66811D-01  7.70030D-02  2.54924D-02  2.29531D+00
   10   -1.16288D-01 -1.14442D-01 -1.22906D-01 -5.13567D-01  7.34473D-01  3.44055D-01 -3.00178D+00  5.08578D-01  1.77185D+00  3.63163D+00
   11   -7.13805D-02 -2.15593D-01 -1.41597D-01  1.16693D+00 -2.85245D+00 -1.63009D+00  3.30564D-02 -1.78326D-01  9.00607D-02 -1.12861D+00
   12    5.15930D-01 -6.16465D-01 -3.71532D+00  3.14844D-01 -9.61068D-01 -6.81241D-01  1.16222D+00 -1.04093D-01 -8.67073D-01 -1.99300D+00


              11           12
   ----- ----- ----- ----- -----
   11    3.24637D+00
   12    1.68163D+00  5.26364D+00

 center of mass
 --------------
 x =  -0.00000000 y =   0.00000000 z =   0.00000000

 moments of inertia (a.u.)
 ------------------
         543.940896088014           0.000400034727          -0.000020196172
           0.000400034727         543.942257428328           0.000288042965
          -0.000020196172           0.000288042965         543.941175919999

 Rotational Constants
 --------------------
 A=   0.110674 cm-1  (  0.159232 K)
 B=   0.110674 cm-1  (  0.159232 K)
 C=   0.110674 cm-1  (  0.159231 K)


 Temperature                      =   298.15K
 frequency scaling parameter      =   1.0000

 Zero-Point correction to Energy  =    3.905 kcal/mol  (  0.006223 au)
 Thermal correction to Energy     =    6.684 kcal/mol  (  0.010652 au)
 Thermal correction to Enthalpy   =    7.276 kcal/mol  (  0.011595 au)

 Total Entropy                    =   71.789 cal/mol-K
   - Translational                =   40.339 cal/mol-K (mol. weight = 123.8950)
   - Rotational                   =   26.567 cal/mol-K (symmetry #  =        1)
   - Vibrational                  =    4.883 cal/mol-K

 Cv (constant volume heat capacity) =   14.043 cal/mol-K
   - Translational                  =    2.979 cal/mol-K
   - Rotational                     =    2.979 cal/mol-K
   - Vibrational                    =    8.084 cal/mol-K



          -------------------------------------------------
          NORMAL MODE EIGENVECTORS IN CARTESIAN COORDINATES
          -------------------------------------------------
             (Projected Frequencies expressed in cm-1)

                    1           2           3           4           5           6
 
 P.Frequency       -0.00        0.00        0.00        0.00        0.00        0.00
 
           1     0.12881    -0.03570    -0.01164     0.00493    -0.00160    -0.00028
           2     0.00043     0.00958    -0.13311    -0.00583    -0.03868    -0.00740
           3    -0.03597    -0.00267    -0.00964    -0.01385    -0.01688    -0.09557
           4     0.01787    -0.03650     0.01992     0.12173     0.04275    -0.03844
           5    -0.00080     0.01439    -0.03364     0.03751    -0.07256     0.01401
           6     0.00776     0.00382     0.10500    -0.00599    -0.07843    -0.05255
           7     0.04441    -0.08232    -0.01428     0.00622    -0.01069    -0.01281
           8    -0.01460     0.05268    -0.01620     0.12212    -0.02780    -0.00664
           9     0.09562     0.06654    -0.01345    -0.02449    -0.00356    -0.07624
          10    -0.02486    -0.12342    -0.01809     0.00190    -0.02077    -0.02208
          11     0.00867    -0.01102     0.01297     0.00092    -0.12590     0.04206
          12    -0.04470    -0.00499    -0.02537    -0.01472    -0.00866    -0.10190

                    7           8           9          10          11          12
 
 P.Frequency      367.33      367.33      463.78      463.78      463.78      606.80
 
           1     0.02723    -0.07680    -0.01664     0.05313    -0.05554    -0.03785
           2     0.08482     0.01880    -0.06194    -0.01512     0.02747     0.02286
           3     0.01162     0.04267     0.00193    -0.03139    -0.11055    -0.07820
           4     0.02868     0.08511    -0.01921     0.05461     0.02631    -0.00212
           5     0.00815    -0.00497     0.11197     0.01749     0.05624    -0.08933
           6     0.08475    -0.02833    -0.02940    -0.03341     0.04675     0.00931
           7     0.01449     0.02428     0.09196    -0.07643    -0.02541     0.08528
           8    -0.03987    -0.07539    -0.01981    -0.05867    -0.03739     0.02824
           9    -0.07919     0.04240    -0.00982    -0.03208     0.05397     0.00139
          10    -0.07040    -0.03259    -0.05611    -0.03131     0.05465    -0.04531
          11    -0.05310     0.06156    -0.03022     0.05629    -0.04632     0.03823
          12    -0.01718    -0.05674     0.03729     0.09687     0.00983     0.06751
  
  
 ----------------------------------------------------------------------------
 Normal Eigenvalue ||           Projected Infra Red Intensities
  Mode   [cm**-1]  || [atomic units] [(debye/angs)**2] [(KM/mol)] [arbitrary]
 ------ ---------- || -------------- ----------------- ---------- -----------
    1       -0.000 ||    0.000000           0.000         0.000       0.000
    2        0.000 ||    0.000000           0.000         0.000       0.000
    3        0.000 ||    0.000000           0.000         0.000       0.000
    4        0.000 ||    0.000000           0.000         0.000       0.000
    5        0.000 ||    0.000000           0.000         0.000       0.000
    6        0.000 ||    0.000000           0.000         0.000       0.000
    7      367.332 ||    0.000000           0.000         0.000       0.000
    8      367.333 ||    0.000000           0.000         0.000       0.000
    9      463.780 ||    0.001769           0.041         1.724      39.978
   10      463.783 ||    0.001770           0.041         1.726      40.005
   11      463.784 ||    0.001771           0.041         1.726      40.018
   12      606.799 ||    0.000000           0.000         0.000       0.000
 ----------------------------------------------------------------------------



 vib:animation  F


                                NWChem Input Module
                                -------------------




                                     CITATION
                                     --------
                Please cite the following reference when publishing
                           results obtained with NWChem:

          E. Aprà, E. J. Bylaska, W. A. de Jong, N. Govind, K. Kowalski,
       T. P. Straatsma, M. Valiev, H. J. J. van Dam, Y. Alexeev, J. Anchell,
       V. Anisimov, F. W. Aquino, R. Atta-Fynn, J. Autschbach, N. P. Bauman,
     J. C. Becca, D. E. Bernholdt, K. Bhaskaran-Nair, S. Bogatko, P. Borowski,
        J. Boschen, J. Brabec, A. Bruner, E. Cauët, Y. Chen, G. N. Chuev,
      C. J. Cramer, J. Daily, M. J. O. Deegan, T. H. Dunning Jr., M. Dupuis,
   K. G. Dyall, G. I. Fann, S. A. Fischer, A. Fonari, H. Früchtl, L. Gagliardi,
      J. Garza, N. Gawande, S. Ghosh, K. Glaesemann, A. W. Götz, J. Hammond,
       V. Helms, E. D. Hermes, K. Hirao, S. Hirata, M. Jacquelin, L. Jensen,
   B. G. Johnson, H. Jónsson, R. A. Kendall, M. Klemm, R. Kobayashi, V. Konkov,
      S. Krishnamoorthy, M. Krishnan, Z. Lin, R. D. Lins, R. J. Littlefield,
      A. J. Logsdail, K. Lopata, W. Ma, A. V. Marenich, J. Martin del Campo,
   D. Mejia-Rodriguez, J. E. Moore, J. M. Mullin, T. Nakajima, D. R. Nascimento,
    J. A. Nichols, P. J. Nichols, J. Nieplocha, A. Otero-de-la-Roza, B. Palmer,
    A. Panyala, T. Pirojsirikul, B. Peng, R. Peverati, J. Pittner, L. Pollack,
   R. M. Richard, P. Sadayappan, G. C. Schatz, W. A. Shelton, D. W. Silverstein,
   D. M. A. Smith, T. A. Soares, D. Song, M. Swart, H. L. Taylor, G. S. Thomas,
            V. Tipparaju, D. G. Truhlar, K. Tsemekhman, T. Van Voorhis,
     Á. Vázquez-Mayagoitia, P. Verma, O. Villa, A. Vishnu, K. D. Vogiatzis,
        D. Wang, J. H. Weare, M. J. Williamson, T. L. Windus, K. Woliński,
        A. T. Wong, Q. Wu, C. Yang, Q. Yu, M. Zacharias, Z. Zhang, Y. Zhao,
                                and R. J. Harrison
                        "NWChem: Past, present, and future
                         J. Chem. Phys. 152, 184102 (2020)
                               doi:10.1063/5.0004997

                                      AUTHORS
                                      -------
     E. Apra, E. J. Bylaska, N. Govind, K. Kowalski, M. Valiev, W. A. de Jong,
      T. P. Straatsma, H. J. J. van Dam, D. Wang, T. L. Windus, N. P. Bauman,
       A. Panyala, J. Hammond, J. Autschbach, K. Bhaskaran-Nair, J. Brabec,
    K. Lopata, S. A. Fischer, S. Krishnamoorthy, M. Jacquelin, W. Ma, M. Klemm,
       O. Villa, Y. Chen, V. Anisimov, F. Aquino, S. Hirata, M. T. Hackler,
           Eric Hermes, L. Jensen, J. E. Moore, J. C. Becca, V. Konjkov,
            D. Mejia-Rodriguez, T. Risthaus, M. Malagoli, A. Marenich,
   A. Otero-de-la-Roza, J. Mullin, P. Nichols, R. Peverati, J. Pittner, Y. Zhao,
        P.-D. Fan, A. Fonari, M. J. Williamson, R. J. Harrison, J. R. Rehr,
      M. Dupuis, D. Silverstein, D. M. A. Smith, J. Nieplocha, V. Tipparaju,
      M. Krishnan, B. E. Van Kuiken, A. Vazquez-Mayagoitia, M. Swart, Q. Wu,
   T. Van Voorhis, A. A. Auer, M. Nooijen, L. D. Crosby, E. Brown, G. Cisneros,
     G. I. Fann, H. Fruchtl, J. Garza, K. Hirao, R. A. Kendall, J. A. Nichols,
       K. Tsemekhman, K. Wolinski, J. Anchell, D. E. Bernholdt, P. Borowski,
       T. Clark, D. Clerc, H. Dachsel, M. J. O. Deegan, K. Dyall, D. Elwood,
      E. Glendening, M. Gutowski, A. C. Hess, J. Jaffe, B. G. Johnson, J. Ju,
        R. Kobayashi, R. Kutteh, Z. Lin, R. Littlefield, X. Long, B. Meng,
      T. Nakajima, S. Niu, L. Pollack, M. Rosing, K. Glaesemann, G. Sandrone,
      M. Stave, H. Taylor, G. Thomas, J. H. van Lenthe, A. T. Wong, Z. Zhang.

 Total times  cpu:       21.8s     wall:       22.0s
